
    -----------------------------------------------------------------------
          Psi4: An Open-Source Ab Initio Electronic Structure Package
                               Psi4 1.1 release

                         Git: Rev {HEAD} add49b9 


    R. M. Parrish, L. A. Burns, D. G. A. Smith, A. C. Simmonett,
    A. E. DePrince III, E. G. Hohenstein, U. Bozkaya, A. Yu. Sokolov,
    R. Di Remigio, R. M. Richard, J. F. Gonthier, A. M. James,
    H. R. McAlexander, A. Kumar, M. Saitow, X. Wang, B. P. Pritchard,
    P. Verma, H. F. Schaefer III, K. Patkowski, R. A. King, E. F. Valeev,
    F. A. Evangelista, J. M. Turney, T. D. Crawford, and C. D. Sherrill,
    J. Chem. Theory Comput. in press (2017).
    (doi: 10.1021/acs.jctc.7b00174)

    -----------------------------------------------------------------------


    Psi4 started on: Friday, 06 April 2018 04:13PM

    Process ID:  10940
    PSIDATADIR: /Users/alolinco/miniconda3/envs/p4dev36/share/psi4
    Memory:     500.0 MiB
    Threads:    1
    
  ==> Input File <==

--------------------------------------------------------------------------
#! single-point HF/cc-pvdz on water
#nopen = 0 is singlet (Default)
print('        <<< Literal nwchem.nw to NWChem >>>'

memory 400 mb

nwchem {
geometry
O     0.000000000000    0.000000000000   -0.065638538099
H     0.000000000000   -0.757480611647    0.520865616174
H     0.000000000000    0.757480611647    0.520865616174
end

basis spherical
* library cc-pvdz
end

scf
 rhf
 thresh 1.0e-8 #Not the same as e_convergence and d_convergence
 nopen 0 #singlet
end

task scf energy
}

energy('nwchem')


clean()
clean_variables()

print( '        <<< Translation of nwchem.nw to Psi4 format to NWChem >>>'

memory 400 mb

molecule {
O
H 1 R
H 1 R 2 A

R=0.958
A=104.5
}

set {
basis cc-pvdz
nwchem_scf_thresh 1.0e-8 
nwchem_scf rhf 
nwchem_scf_nopen 0
}

#To get the same energy from Psi4, add commands below
#set df_scf_guess false #Doing nothing for NWChem
#set scf_type direct  #Doing nothing for NWChem

nwchem {}  # clear literal block since running sequentially

energy('nwchem-scf')


clean()
clean_variables()
nwchem {}
# these make a clean slate for the next job
revoke_global_option_changed('NWCHEM_SCF_THRESH')
revoke_global_option_changed('NWCHEM_SCF')
revoke_global_option_changed('NWCHEM_SCF_NOPEN')

print( '        <<< Thorough Psi4 format >>>'

memory 400 mb

molecule {
O
H 1 R
H 1 R 2 A

R=0.958
A=104.5
}

set basis cc-pvdz
set nwchem_scf_thresh 1.0e-8 
set reference rhf

energy('nwchem-scf')


clean()
clean_variables()

print( '        <<< Translation of nwchem.nw to Psi4 format to NWChem >>>'

memory 400 mb

molecule {
O
H 1 R
H 1 R 2 A

R=0.958
A=104.5
}

set {
basis cc-pvdz
nwchem_scf_thresh 1.0e-8
nwchem_scf rhf #or reference rhf
nwchem_scf_nopen 0
}

nwchem {}  # clear literal block since running sequentially

energy('nwchem-scf')


clean()
clean_variables()
nwchem {})

print( '        <<< Translation of nwchem.nw to Psi4 format to NWChem >>>'

molecule {
O
H 1 R
H 1 R 2 A

R=0.958
A=104.5
}

set basis cc-pvdz
set nwchem_scf_thresh 1.0e-8 
set reference rhf

energy('nwchem-scf')
--------------------------------------------------------------------------

*** Psi4 exiting successfully. Buy a developer a beer!
