
    -----------------------------------------------------------------------
          Psi4: An Open-Source Ab Initio Electronic Structure Package
                               Psi4 1.1 release

                         Git: Rev {HEAD} add49b9 


    R. M. Parrish, L. A. Burns, D. G. A. Smith, A. C. Simmonett,
    A. E. DePrince III, E. G. Hohenstein, U. Bozkaya, A. Yu. Sokolov,
    R. Di Remigio, R. M. Richard, J. F. Gonthier, A. M. James,
    H. R. McAlexander, A. Kumar, M. Saitow, X. Wang, B. P. Pritchard,
    P. Verma, H. F. Schaefer III, K. Patkowski, R. A. King, E. F. Valeev,
    F. A. Evangelista, J. M. Turney, T. D. Crawford, and C. D. Sherrill,
    J. Chem. Theory Comput. in press (2017).
    (doi: 10.1021/acs.jctc.7b00174)

    -----------------------------------------------------------------------


    Psi4 started on: Monday, 09 April 2018 04:25PM

    Process ID:   6936
    PSIDATADIR: /Users/alolinco/miniconda3/envs/p4dev36/share/psi4
    Memory:     500.0 MiB
    Threads:    1
    
  ==> Input File <==

--------------------------------------------------------------------------
#! single-point UHF/cc-pVDZ  on NH2 

print '        <<< Literal nwchem.nw to NWChem >>>'

nwchem {
memory 400 mb 

geometry
zmat
 N
 H 1 1.008
 H 1 1.008 2 105.0
end
end

basis spherical
* library cc-pVDZ
end

scf
uhf
nopen 1
thresh 1.0e-8
end

task scf energy
}

energy('nwchem')


clean()
clean_variables()
nwchem {}

print '        <<< Translation of nwchem.nw to Psi4 format to NWChem >>>'

banner('UHF-SCF energy calculation')

molecule {
0 2
N
H 1 R
H 1 R 2 A

R=1.008
A=105.0
}

set {
basis cc-pVDZ
nwchem_scf uhf
nwchem_scf_nopen 1
nwchem_scf_thresh 1.0e-8
#To get the same energy from Psi4, add commands below
#df_scf_guess false #Doing nothing for NWChem
#scf_type direct  #Doing nothing for NWChem
}

energy('nwchem-scf')


clean()
clean_variables()
nwchem {}

print '        <<< Translation of nwchem.nw to Psi4 format to NWChem >>>'

banner('UHF-SCF energy calculation')

molecule {
0 2
N
H 1 R
H 1 R 2 A

R=1.008
A=105.0
}

set {
basis cc-pvdz
reference uhf 
nwchem_scf_nopen 1
nwchem_scf_thresh 1.0e-8
}

energy('nwchem-scf')


--------------------------------------------------------------------------

*** Psi4 exiting successfully. Buy a developer a beer!
