
    -----------------------------------------------------------------------
          Psi4: An Open-Source Ab Initio Electronic Structure Package
                               Psi4 undefined 

                         Git: Rev {jygrace} cc54a90 dirty


    R. M. Parrish, L. A. Burns, D. G. A. Smith, A. C. Simmonett,
    A. E. DePrince III, E. G. Hohenstein, U. Bozkaya, A. Yu. Sokolov,
    R. Di Remigio, R. M. Richard, J. F. Gonthier, A. M. James,
    H. R. McAlexander, A. Kumar, M. Saitow, X. Wang, B. P. Pritchard,
    P. Verma, H. F. Schaefer III, K. Patkowski, R. A. King, E. F. Valeev,
    F. A. Evangelista, J. M. Turney, T. D. Crawford, and C. D. Sherrill,
    submitted.

    -----------------------------------------------------------------------


    Psi4 started on: Friday, 16 June 2017 12:06PM

    Process ID:   4215
    PSIDATADIR: /Users/jiyoung/common-driver-psi4/objdir/stage/usr/local/psi4/share/psi4
    Memory:     500.0 MiB
    Threads:    1
    
  ==> Input File <==

--------------------------------------------------------------------------
#! Geometry optimization HF/6-31g* on water
print '        <<< Literal nwchem input to NWChem >>>'

nwchem {
memory 400 mb 
geometry nocenter noautosym 
O     0.000000000000    0.000000000000   -0.065638538099
H     0.000000000000   -0.757480611647    0.520865616174
H     0.000000000000    0.757480611647    0.520865616174
symmetry c2v
end

basis 
* library 6-31g*
end

scf
 rhf
 thresh 1.0e-8 #Not the same as e_convergence and d_convergence
 direct #not necessary
end

task scf optimize
}

energy('nwchem')

compare_values(9.2885667731, get_variable('NUCLEAR REPULSION ENERGY'), 6, 'NRE')  #TEST
compare_values(-76.010746508402, get_variable('current energy'), 6, 'SCF')  #TEST

clean()
clean_variables()
nwchem {}  # clear literal block since running sequentially


print '        <<< Translation of nwchem.nw to Psi4 format to NWChem >>>'

memory 400 mb

molecule {
O     0.000000000000    0.000000000000   -0.065638538099
H     0.000000000000   -0.757480611647    0.520865616174
H     0.000000000000    0.757480611647    0.520865616174
symmetry c2v
}

set {
basis 6-31g*
nwchem_scf_thresh 1.0e-8 
nwchem_scf rhf 
}

#To get the same energy from Psi4, add commands below
set df_scf_guess false #Doing nothing for NWChem
set scf_type direct  
set g_convergence GAU #NWChem default convergence criteria 

nwchem {}  # clear literal block since running sequentially

optimize('nwchem-scf')

# Geometry optimization through NWChem gradient :
# Bond angle (105.5) and distance(0.947 angs) are matched to pure_nwchem(105.5, 0.947angs).

# NRE TEST against pure nwchem w/ default convergence criteria : 
compare_values(9.2885667731, get_variable('NUCLEAR REPULSION ENERGY'), 3, 'NRE') #TEST  
compare_values(-76.010746508402, get_variable('current energy'), 6, 'SCF')  #TEST
# NRE TEST against pure psi4 w/ g_convergence GAU: 
compare_values(9.2881366519376787, get_variable('NUCLEAR REPULSION ENERGY'), 5, 'NRE-pure_psi4') #TEST  
compare_values(-76.010746430558, get_variable('current energy'), 6, 'SCF-pure_psi4')  #TEST


clean()
clean_variables()
nwchem {}

--------------------------------------------------------------------------



============================== echo of input deck ==============================
echo

memory 400 mb
geometry nocenter noautosym
O     0.000000000000    0.000000000000   -0.065638538099
H     0.000000000000   -0.757480611647    0.520865616174
H     0.000000000000    0.757480611647    0.520865616174
symmetry c2v
end

basis
* library 6-31g*
end

scf
 rhf
 thresh 1.0e-8 #Not the same as e_convergence and d_convergence
 direct #not necessary
end

task scf optimize

================================================================================


                                         
                                         


              Northwest Computational Chemistry Package (NWChem) 6.5
              ------------------------------------------------------


                    Environmental Molecular Sciences Laboratory
                       Pacific Northwest National Laboratory
                                Richland, WA 99352

                              Copyright (c) 1994-2014
                       Pacific Northwest National Laboratory
                            Battelle Memorial Institute

             NWChem is an open-source computational chemistry package
                        distributed under the terms of the
                      Educational Community License (ECL) 2.0
             A copy of the license is included with this distribution
                              in the LICENSE.TXT file

                                  ACKNOWLEDGMENT
                                  --------------

            This software and its documentation were developed at the
            EMSL at Pacific Northwest National Laboratory, a multiprogram
            national laboratory, operated for the U.S. Department of Energy
            by Battelle under Contract Number DE-AC05-76RL01830. Support
            for this work was provided by the Department of Energy Office
            of Biological and Environmental Research, Office of Basic
            Energy Sciences, and the Office of Advanced Scientific Computing.


           Job information
           ---------------

    hostname        = halls.tlw.chem.iastate.edu
    program         = nwchem
    date            = Fri Jun 16 12:06:35 2017

    compiled        = Wed_Jun_14_11:31:52_2017
    source          = /Users/jiyoung/nwchem-6.5
    nwchem branch   = 6.5
    nwchem revision = 26243
    ga revision     = 10506
    input           = nwchem.nw
    prefix          = nwchem.
    data base       = ./nwchem.db
    status          = startup
    nproc           =        1
    time left       =     -1s



           Memory information
           ------------------

    heap     =   13107196 doubles =    100.0 Mbytes
    stack    =   13107201 doubles =    100.0 Mbytes
    global   =   26214400 doubles =    200.0 Mbytes (distinct from heap & stack)
    total    =   52428797 doubles =    400.0 Mbytes
    verify   = yes
    hardfail = no 


           Directory information
           ---------------------

  0 permanent = .
  0 scratch   = .




                                NWChem Input Module
                                -------------------



 Scaling coordinates for geometry "geometry" by  1.889725989
 (inverse scale =  0.529177249)


          ------
          auto-z
          ------


                             Geometry "geometry" -> ""
                             -------------------------

 Output coordinates in angstroms (scale by  1.889725989 to convert to a.u.)

  No.       Tag          Charge          X              Y              Z
 ---- ---------------- ---------- -------------- -------------- --------------
    1 O                    8.0000     0.00000000     0.00000000    -0.06563854
    2 H                    1.0000     0.00000000    -0.75748061     0.52086562
    3 H                    1.0000     0.00000000     0.75748061     0.52086562

      Atomic Mass 
      ----------- 

      O                 15.994910
      H                  1.007825


 Effective nuclear repulsion energy (a.u.)       9.1873342402

            Nuclear Dipole moment (a.u.) 
            ----------------------------
        X                 Y               Z
 ---------------- ---------------- ----------------
     0.0000000000     0.0000000000     0.9762757725

      Symmetry information
      --------------------

 Group name             C2v       
 Group number             16
 Group order               4
 No. of unique centers     2

      Symmetry unique atoms

     1    2



                                Z-matrix (autoz)
                                -------- 

 Units are Angstrom for bonds and degrees for angles

      Type          Name      I     J     K     L     M      Value
      ----------- --------  ----- ----- ----- ----- ----- ----------
    1 Stretch                  1     2                       0.95800
    2 Stretch                  1     3                       0.95800
    3 Bend                     2     1     3               104.50000


            XYZ format geometry
            -------------------
     3
 geometry
 O                     0.00000000     0.00000000    -0.06563854
 H                     0.00000000    -0.75748061     0.52086562
 H                     0.00000000     0.75748061     0.52086562

 ==============================================================================
                                internuclear distances
 ------------------------------------------------------------------------------
       center one      |      center two      | atomic units |  angstroms
 ------------------------------------------------------------------------------
    2 H                |   1 O                |     1.81036  |     0.95800
    3 H                |   1 O                |     1.81036  |     0.95800
 ------------------------------------------------------------------------------
                         number of included internuclear distances:          2
 ==============================================================================



 ==============================================================================
                                 internuclear angles
 ------------------------------------------------------------------------------
        center 1       |       center 2       |       center 3       |  degrees
 ------------------------------------------------------------------------------
    2 H                |   1 O                |   3 H                |   104.50
 ------------------------------------------------------------------------------
                            number of included internuclear angles:          1
 ==============================================================================





 Summary of "ao basis" -> "" (cartesian)
 ------------------------------------------------------------------------------
       Tag                 Description            Shells   Functions and Types
 ---------------- ------------------------------  ------  ---------------------
 *                           6-31g*                   on all atoms 




                           NWChem Geometry Optimization
                           ----------------------------


 maximum gradient threshold         (gmax) =   0.000450
 rms gradient threshold             (grms) =   0.000300
 maximum cartesian step threshold   (xmax) =   0.001800
 rms cartesian step threshold       (xrms) =   0.001200
 fixed trust radius                (trust) =   0.300000
 maximum step size to saddle      (sadstp) =   0.100000
 energy precision                  (eprec) =   1.0D-07
 maximum number of steps          (nptopt) =   20
 initial hessian option           (inhess) =    0
 line search option               (linopt) =    1
 hessian update option            (modupd) =    1
 saddle point option              (modsad) =    0
 initial eigen-mode to follow     (moddir) =    0
 initial variable to follow       (vardir) =    0
 follow first negative mode     (firstneg) =    T
 apply conjugacy                    (opcg) =    F
 source of zmatrix                         =   autoz   


          -------------------
          Energy Minimization
          -------------------


 Names of Z-matrix variables 
    1              2              3         

 Variables with the same non-blank name are constrained to be equal


 Using diagonal initial Hessian 
 Scaling for Hessian diagonals: bonds = 1.00  angles = 0.25  torsions = 0.10

          --------
          Step   0
          --------


                         Geometry "geometry" -> "geometry"
                         ---------------------------------

 Output coordinates in angstroms (scale by  1.889725989 to convert to a.u.)

  No.       Tag          Charge          X              Y              Z
 ---- ---------------- ---------- -------------- -------------- --------------
    1 O                    8.0000     0.00000000     0.00000000    -0.06563854
    2 H                    1.0000     0.00000000    -0.75748061     0.52086562
    3 H                    1.0000     0.00000000     0.75748061     0.52086562

      Atomic Mass 
      ----------- 

      O                 15.994910
      H                  1.007825


 Effective nuclear repulsion energy (a.u.)       9.1873342402

            Nuclear Dipole moment (a.u.) 
            ----------------------------
        X                 Y               Z
 ---------------- ---------------- ----------------
     0.0000000000     0.0000000000     0.9762757725

      Symmetry information
      --------------------

 Group name             C2v       
 Group number             16
 Group order               4
 No. of unique centers     2

      Symmetry unique atoms

     1    2

                      Basis "ao basis" -> "ao basis" (cartesian)
                      -----
  O (Oxygen)
  ----------
            Exponent  Coefficients 
       -------------- ---------------------------------------------------------
  1 S  5.48467170E+03  0.001831
  1 S  8.25234950E+02  0.013950
  1 S  1.88046960E+02  0.068445
  1 S  5.29645000E+01  0.232714
  1 S  1.68975700E+01  0.470193
  1 S  5.79963530E+00  0.358521

  2 S  1.55396160E+01 -0.110778
  2 S  3.59993360E+00 -0.148026
  2 S  1.01376180E+00  1.130767

  3 P  1.55396160E+01  0.070874
  3 P  3.59993360E+00  0.339753
  3 P  1.01376180E+00  0.727159

  4 S  2.70005800E-01  1.000000

  5 P  2.70005800E-01  1.000000

  6 D  8.00000000E-01  1.000000

  H (Hydrogen)
  ------------
            Exponent  Coefficients 
       -------------- ---------------------------------------------------------
  1 S  1.87311370E+01  0.033495
  1 S  2.82539370E+00  0.234727
  1 S  6.40121700E-01  0.813757

  2 S  1.61277800E-01  1.000000



 Summary of "ao basis" -> "ao basis" (cartesian)
 ------------------------------------------------------------------------------
       Tag                 Description            Shells   Functions and Types
 ---------------- ------------------------------  ------  ---------------------
 O                           6-31g*                  6       15   3s2p1d
 H                           6-31g*                  2        2   2s


                                 NWChem SCF Module
                                 -----------------



  ao basis        = "ao basis"
  functions       =    19
  atoms           =     3
  closed shells   =     5
  open shells     =     0
  charge          =   0.00
  wavefunction    = RHF 
  input vectors   = atomic
  output vectors  = ./nwchem.movecs
  use symmetry    = T
  symmetry adapt  = T


 Summary of "ao basis" -> "ao basis" (cartesian)
 ------------------------------------------------------------------------------
       Tag                 Description            Shells   Functions and Types
 ---------------- ------------------------------  ------  ---------------------
 O                           6-31g*                  6       15   3s2p1d
 H                           6-31g*                  2        2   2s


      Symmetry analysis of basis
      --------------------------

        a1         10
        a2          1
        b1          3
        b2          5


 Forming initial guess at       0.0s


      Superposition of Atomic Density Guess
      -------------------------------------

 Sum of atomic energies:         -75.75081731

      Non-variational initial energy
      ------------------------------

 Total energy =     -75.917957
 1-e energy   =    -121.722004
 2-e energy   =      36.616713
 HOMO         =      -0.470156
 LUMO         =       0.114574


      Symmetry analysis of molecular orbitals - initial
      -------------------------------------------------

  Numbering of irreducible representations: 

     1 a1          2 a2          3 b1          4 b2      

  Orbital symmetries:

     1 a1          2 a1          3 b2          4 a1          5 b1      
     6 a1          7 b2          8 b2          9 a1         10 b1      
    11 a1         12 b2         13 a1         14 a1         15 a2      


 Starting SCF solution at       0.1s



 ----------------------------------------------
         Quadratically convergent ROHF

 Convergence threshold     :          1.000E-08
 Maximum no. of iterations :           30
 Final Fock-matrix accuracy:          1.000E-10
 ----------------------------------------------


              iter       energy          gnorm     gmax       time
             ----- ------------------- --------- --------- --------
                 1      -75.9747059940  8.31D-01  3.41D-01      0.1
                 2      -76.0080522872  1.84D-01  1.02D-01      0.1
                 3      -76.0103775812  4.09D-02  2.40D-02      0.1
                 4      -76.0104960660  1.64D-03  9.33D-04      0.2
                 5      -76.0104963071  2.30D-06  9.69D-07      0.3
                 6      -76.0104963071  5.57D-10  2.24D-10      0.4


       Final RHF  results 
       ------------------ 

         Total SCF energy =    -76.010496307079
      One-electron energy =   -123.041302409717
      Two-electron energy =     37.843471862474
 Nuclear repulsion energy =      9.187334240165

        Time for solution =      0.3s



       Symmetry analysis of molecular orbitals - final
       -----------------------------------------------

  Numbering of irreducible representations: 

     1 a1          2 a2          3 b1          4 b2      

  Orbital symmetries:

     1 a1          2 a1          3 b2          4 a1          5 b1      
     6 a1          7 b2          8 b2          9 a1         10 b1      
    11 a1         12 b2         13 a1         14 a1         15 a2      

             Final eigenvalues
             -----------------

              1      
    1  -20.5605
    2   -1.3414
    3   -0.7065
    4   -0.5709
    5   -0.4979
    6    0.2106
    7    0.3040
    8    1.0222
    9    1.1315
   10    1.1678
   11    1.1710
   12    1.3806
   13    1.4341
   14    2.0203
   15    2.0340

                       ROHF Final Molecular Orbital Analysis
                       -------------------------------------

 Vector    2  Occ=2.000000D+00  E=-1.341405D+00  Symmetry=a1
              MO Center=  2.6D-17,  2.9D-16,  1.1D-01, r^2= 5.0D-01
   Bfn.  Coefficient  Atom+Function         Bfn.  Coefficient  Atom+Function  
  ----- ------------  ---------------      ----- ------------  ---------------
     2      0.475891  1 O  s                  6      0.439654  1 O  s          
     1     -0.209704  1 O  s          

 Vector    3  Occ=2.000000D+00  E=-7.064718D-01  Symmetry=b2
              MO Center= -7.5D-36, -2.4D-16,  1.5D-01, r^2= 7.7D-01
   Bfn.  Coefficient  Atom+Function         Bfn.  Coefficient  Atom+Function  
  ----- ------------  ---------------      ----- ------------  ---------------
     4      0.507475  1 O  py                 8      0.306693  1 O  py         
    16     -0.230862  2 H  s                 18      0.230862  3 H  s          

 Vector    4  Occ=2.000000D+00  E=-5.709039D-01  Symmetry=a1
              MO Center= -2.9D-34, -6.1D-18, -1.2D-01, r^2= 6.9D-01
   Bfn.  Coefficient  Atom+Function         Bfn.  Coefficient  Atom+Function  
  ----- ------------  ---------------      ----- ------------  ---------------
     5      0.555308  1 O  pz                 9      0.403174  1 O  pz         
     6     -0.325343  1 O  s                  2     -0.164548  1 O  s          

 Vector    5  Occ=2.000000D+00  E=-4.978584D-01  Symmetry=b1
              MO Center= -3.9D-17, -1.2D-16, -4.6D-02, r^2= 6.0D-01
   Bfn.  Coefficient  Atom+Function         Bfn.  Coefficient  Atom+Function  
  ----- ------------  ---------------      ----- ------------  ---------------
     3      0.639642  1 O  px                 7      0.511444  1 O  px         

 Vector    6  Occ=0.000000D+00  E= 2.105785D-01  Symmetry=a1
              MO Center= -7.8D-17, -1.1D-16,  7.0D-01, r^2= 2.6D+00
   Bfn.  Coefficient  Atom+Function         Bfn.  Coefficient  Atom+Function  
  ----- ------------  ---------------      ----- ------------  ---------------
     6      1.413198  1 O  s                 17     -1.040479  2 H  s          
    19     -1.040479  3 H  s                  9      0.508432  1 O  pz         
     5      0.217485  1 O  pz         

 Vector    7  Occ=0.000000D+00  E= 3.039535D-01  Symmetry=b2
              MO Center=  4.2D-20, -3.3D-16,  6.7D-01, r^2= 2.7D+00
   Bfn.  Coefficient  Atom+Function         Bfn.  Coefficient  Atom+Function  
  ----- ------------  ---------------      ----- ------------  ---------------
    17      1.392854  2 H  s                 19     -1.392854  3 H  s          
     8      0.833296  1 O  py                 4      0.329608  1 O  py         

 Vector    8  Occ=0.000000D+00  E= 1.022228D+00  Symmetry=b2
              MO Center= -2.0D-16,  3.7D-16,  1.0D-01, r^2= 1.5D+00
   Bfn.  Coefficient  Atom+Function         Bfn.  Coefficient  Atom+Function  
  ----- ------------  ---------------      ----- ------------  ---------------
    16      0.838964  2 H  s                 18     -0.838964  3 H  s          
     8      0.658248  1 O  py                17     -0.462615  2 H  s          
    19      0.462615  3 H  s                 14     -0.343335  1 O  dyz        

 Vector    9  Occ=0.000000D+00  E= 1.131541D+00  Symmetry=a1
              MO Center= -2.0D-18,  3.5D-16, -1.3D-01, r^2= 1.6D+00
   Bfn.  Coefficient  Atom+Function         Bfn.  Coefficient  Atom+Function  
  ----- ------------  ---------------      ----- ------------  ---------------
     6      1.634691  1 O  s                  2     -0.921792  1 O  s          
     9     -0.701526  1 O  pz                16      0.557323  2 H  s          
    18      0.557323  3 H  s                 17     -0.480265  2 H  s          
    19     -0.480265  3 H  s                  5      0.408254  1 O  pz         
    10     -0.388441  1 O  dxx               15     -0.317084  1 O  dzz        

 Vector   10  Occ=0.000000D+00  E= 1.167786D+00  Symmetry=b1
              MO Center=  2.7D-16,  1.0D-16, -6.2D-02, r^2= 1.1D+00
   Bfn.  Coefficient  Atom+Function         Bfn.  Coefficient  Atom+Function  
  ----- ------------  ---------------      ----- ------------  ---------------
     7     -1.036062  1 O  px                 3      0.962728  1 O  px         

 Vector   11  Occ=0.000000D+00  E= 1.170958D+00  Symmetry=a1
              MO Center= -4.3D-16, -8.4D-16,  7.7D-02, r^2= 1.1D+00
   Bfn.  Coefficient  Atom+Function         Bfn.  Coefficient  Atom+Function  
  ----- ------------  ---------------      ----- ------------  ---------------
     5      0.766347  1 O  pz                16     -0.653558  2 H  s          
    18     -0.653558  3 H  s                  6      0.485201  1 O  s          
     9     -0.380494  1 O  pz                17      0.351467  2 H  s          
    19      0.351467  3 H  s                 13     -0.251584  1 O  dyy        

 Vector   12  Occ=0.000000D+00  E= 1.380585D+00  Symmetry=b2
              MO Center=  1.5D-31, -1.4D-16, -6.5D-03, r^2= 1.4D+00
   Bfn.  Coefficient  Atom+Function         Bfn.  Coefficient  Atom+Function  
  ----- ------------  ---------------      ----- ------------  ---------------
     8      1.537172  1 O  py                 4     -1.037109  1 O  py         
    17      0.912872  2 H  s                 19     -0.912872  3 H  s          

 Vector   13  Occ=0.000000D+00  E= 1.434056D+00  Symmetry=a1
              MO Center=  2.5D-16,  1.2D-16,  4.4D-01, r^2= 1.3D+00
   Bfn.  Coefficient  Atom+Function         Bfn.  Coefficient  Atom+Function  
  ----- ------------  ---------------      ----- ------------  ---------------
     6      3.568825  1 O  s                  2     -1.416773  1 O  s          
     9      1.174952  1 O  pz                17     -0.782907  2 H  s          
    19     -0.782907  3 H  s                 13     -0.644343  1 O  dyy        
     5     -0.507257  1 O  pz                15     -0.402128  1 O  dzz        
    16     -0.323719  2 H  s                 18     -0.323719  3 H  s          

 Vector   14  Occ=0.000000D+00  E= 2.020281D+00  Symmetry=a1
              MO Center= -6.3D-18, -2.0D-18, -1.1D-01, r^2= 6.2D-01
   Bfn.  Coefficient  Atom+Function         Bfn.  Coefficient  Atom+Function  
  ----- ------------  ---------------      ----- ------------  ---------------
    15      1.008777  1 O  dzz               13     -0.580887  1 O  dyy        
    10     -0.366504  1 O  dxx                6     -0.226754  1 O  s          

 Vector   15  Occ=0.000000D+00  E= 2.033978D+00  Symmetry=a2
              MO Center=  1.9D-16, -3.5D-16, -6.6D-02, r^2= 6.1D-01
   Bfn.  Coefficient  Atom+Function         Bfn.  Coefficient  Atom+Function  
  ----- ------------  ---------------      ----- ------------  ---------------
    11      1.732051  1 O  dxy        


 center of mass
 --------------
 x =   0.00000000 y =   0.00000000 z =   0.00000003

 moments of inertia (a.u.)
 ------------------
           6.328975696429           0.000000000000           0.000000000000
           0.000000000000           2.198920681254           0.000000000000
           0.000000000000           0.000000000000           4.130055015175

  Mulliken analysis of the total density
  --------------------------------------

    Atom       Charge   Shell Charges
 -----------   ------   -------------------------------------------------------
    1 O    8     8.87   2.00  0.90  2.89  0.92  2.07  0.08
    2 H    1     0.57   0.46  0.10
    3 H    1     0.57   0.46  0.10

       Multipole analysis of the density wrt the origin
       ------------------------------------------------

     L   x y z        total         open         nuclear
     -   - - -        -----         ----         -------
     0   0 0 0     -0.000000      0.000000     10.000000

     1   1 0 0      0.000000      0.000000      0.000000
     1   0 1 0      0.000000      0.000000      0.000000
     1   0 0 1      0.875724      0.000000      0.976276

     2   2 0 0     -5.373932      0.000000      0.000000
     2   1 1 0      0.000000      0.000000      0.000000
     2   1 0 1     -0.000000      0.000000      0.000000
     2   0 2 0     -3.070694      0.000000      4.097988
     2   0 1 1     -0.000000      0.000000      0.000000
     2   0 0 2     -4.273652      0.000000      2.060752

                              NWChem Gradients Module
                              -----------------------



  wavefunction    =   RHF     

  Using symmetry


                         RHF ENERGY GRADIENTS

    atom               coordinates                        gradient
                 x          y          z           x          y          z
   1 O       0.000000   0.000000  -0.124039    0.000000000000   0.000000000000  -0.015766187108
   2 H       0.000000  -1.431431   0.984293    0.000000000000  -0.008187030913   0.007883093554
   3 H       0.000000   1.431431   0.984293    0.000000000000   0.008187030913   0.007883093554

                 ----------------------------------------
                 |  Time  |  1-e(secs)   |  2-e(secs)   |
                 ----------------------------------------
                 |  CPU   |       0.00   |       0.02   |
                 ----------------------------------------
                 |  WALL  |       0.00   |       0.02   |
                 ----------------------------------------

@ Step       Energy      Delta E   Gmax     Grms     Xrms     Xmax   Walltime
@ ---- ---------------- -------- -------- -------- -------- -------- --------
@    0     -76.01049631  0.0D+00  0.01130  0.00925  0.00000  0.00000      0.4
                                                                    



                                Z-matrix (autoz)
                                -------- 

 Units are Angstrom for bonds and degrees for angles

      Type          Name      I     J     K     L     M      Value     Gradient
      ----------- --------  ----- ----- ----- ----- ----- ---------- ----------
    1 Stretch                  1     2                       0.95800    0.01130
    2 Stretch                  1     3                       0.95800    0.01130
    3 Bend                     2     1     3               104.50000   -0.00117

                                 NWChem SCF Module
                                 -----------------



  ao basis        = "ao basis"
  functions       =    19
  atoms           =     3
  closed shells   =     5
  open shells     =     0
  charge          =   0.00
  wavefunction    = RHF 
  input vectors   = ./nwchem.movecs
  output vectors  = ./nwchem.movecs
  use symmetry    = T
  symmetry adapt  = T


 Summary of "ao basis" -> "ao basis" (cartesian)
 ------------------------------------------------------------------------------
       Tag                 Description            Shells   Functions and Types
 ---------------- ------------------------------  ------  ---------------------
 O                           6-31g*                  6       15   3s2p1d
 H                           6-31g*                  2        2   2s


      Symmetry analysis of basis
      --------------------------

        a1         10
        a2          1
        b1          3
        b2          5


 Forming initial guess at       0.4s


 Loading old vectors from job with title :




      Symmetry analysis of molecular orbitals - initial
      -------------------------------------------------

  Numbering of irreducible representations: 

     1 a1          2 a2          3 b1          4 b2      

  Orbital symmetries:

     1 a1          2 a1          3 b2          4 a1          5 b1      
     6 a1          7 b2          8 b2          9 a1         10 b1      
    11 a1         12 b2         13 a1         14 a1         15 a2      


 Starting SCF solution at       0.4s



 ----------------------------------------------
         Quadratically convergent ROHF

 Convergence threshold     :          1.000E-08
 Maximum no. of iterations :           30
 Final Fock-matrix accuracy:          1.000E-10
 ----------------------------------------------


              iter       energy          gnorm     gmax       time
             ----- ------------------- --------- --------- --------
                 1      -76.0104496581  5.47D-02  2.43D-02      0.4
                 2      -76.0106658526  9.19D-04  4.99D-04      0.5
                 3      -76.0106659623  3.46D-07  1.51D-07      0.6
                 4      -76.0106659623  8.54D-10  3.87D-10      0.7


       Final RHF  results 
       ------------------ 

         Total SCF energy =    -76.010665962256
      One-electron energy =   -123.326063806340
      Two-electron energy =     37.968377473698
 Nuclear repulsion energy =      9.347020370385

        Time for solution =      0.2s



       Symmetry analysis of molecular orbitals - final
       -----------------------------------------------

  Numbering of irreducible representations: 

     1 a1          2 a2          3 b1          4 b2      

  Orbital symmetries:

     1 a1          2 a1          3 b2          4 a1          5 b1      
     6 a1          7 b2          8 b2          9 a1         10 b1      
    11 a1         12 b2         13 a1         14 a1         15 a2      

             Final eigenvalues
             -----------------

              1      
    1  -20.5569
    2   -1.3495
    3   -0.7171
    4   -0.5724
    5   -0.4988
    6    0.2142
    7    0.3084
    8    1.0330
    9    1.1347
   10    1.1679
   11    1.1862
   12    1.3870
   13    1.4326
   14    2.0183
   15    2.0294

                       ROHF Final Molecular Orbital Analysis
                       -------------------------------------

 Vector    2  Occ=2.000000D+00  E=-1.349514D+00  Symmetry=a1
              MO Center=  2.6D-17,  2.7D-16,  1.2D-01, r^2= 5.0D-01
   Bfn.  Coefficient  Atom+Function         Bfn.  Coefficient  Atom+Function  
  ----- ------------  ---------------      ----- ------------  ---------------
     2      0.475551  1 O  s                  6      0.432480  1 O  s          
     1     -0.209350  1 O  s          

 Vector    3  Occ=2.000000D+00  E=-7.170566D-01  Symmetry=b2
              MO Center= -2.3D-20, -2.6D-16,  1.6D-01, r^2= 7.6D-01
   Bfn.  Coefficient  Atom+Function         Bfn.  Coefficient  Atom+Function  
  ----- ------------  ---------------      ----- ------------  ---------------
     4      0.510101  1 O  py                 8      0.302880  1 O  py         
    16     -0.232986  2 H  s                 18      0.232986  3 H  s          

 Vector    4  Occ=2.000000D+00  E=-5.724487D-01  Symmetry=a1
              MO Center= -3.2D-19,  8.7D-19, -1.2D-01, r^2= 6.8D-01
   Bfn.  Coefficient  Atom+Function         Bfn.  Coefficient  Atom+Function  
  ----- ------------  ---------------      ----- ------------  ---------------
     5      0.558145  1 O  pz                 9      0.404193  1 O  pz         
     6     -0.327189  1 O  s                  2     -0.164392  1 O  s          

 Vector    5  Occ=2.000000D+00  E=-4.987576D-01  Symmetry=b1
              MO Center= -3.5D-17, -1.3D-16, -3.6D-02, r^2= 6.0D-01
   Bfn.  Coefficient  Atom+Function         Bfn.  Coefficient  Atom+Function  
  ----- ------------  ---------------      ----- ------------  ---------------
     3      0.639186  1 O  px                 7      0.511906  1 O  px         

 Vector    6  Occ=0.000000D+00  E= 2.142077D-01  Symmetry=a1
              MO Center= -8.2D-17,  1.1D-16,  7.1D-01, r^2= 2.6D+00
   Bfn.  Coefficient  Atom+Function         Bfn.  Coefficient  Atom+Function  
  ----- ------------  ---------------      ----- ------------  ---------------
     6      1.452443  1 O  s                 17     -1.056669  2 H  s          
    19     -1.056669  3 H  s                  9      0.502572  1 O  pz         
     5      0.209856  1 O  pz         

 Vector    7  Occ=0.000000D+00  E= 3.083711D-01  Symmetry=b2
              MO Center= -1.2D-32, -4.4D-16,  6.8D-01, r^2= 2.7D+00
   Bfn.  Coefficient  Atom+Function         Bfn.  Coefficient  Atom+Function  
  ----- ------------  ---------------      ----- ------------  ---------------
    17      1.426564  2 H  s                 19     -1.426564  3 H  s          
     8      0.842765  1 O  py                 4      0.323901  1 O  py         

 Vector    8  Occ=0.000000D+00  E= 1.033024D+00  Symmetry=b2
              MO Center= -1.2D-32,  0.0D+00,  7.1D-02, r^2= 1.4D+00
   Bfn.  Coefficient  Atom+Function         Bfn.  Coefficient  Atom+Function  
  ----- ------------  ---------------      ----- ------------  ---------------
    16      0.838580  2 H  s                 18     -0.838580  3 H  s          
     8      0.733082  1 O  py                17     -0.402465  2 H  s          
    19      0.402465  3 H  s                 14     -0.342298  1 O  dyz        

 Vector    9  Occ=0.000000D+00  E= 1.134683D+00  Symmetry=a1
              MO Center=  5.7D-18, -5.7D-17, -2.7D-01, r^2= 1.4D+00
   Bfn.  Coefficient  Atom+Function         Bfn.  Coefficient  Atom+Function  
  ----- ------------  ---------------      ----- ------------  ---------------
     6      1.594620  1 O  s                  2     -0.896566  1 O  s          
     9     -0.785909  1 O  pz                 5      0.527814  1 O  pz         
    16      0.465863  2 H  s                 18      0.465863  3 H  s          
    17     -0.400990  2 H  s                 19     -0.400990  3 H  s          
    10     -0.368905  1 O  dxx               15     -0.320336  1 O  dzz        

 Vector   10  Occ=0.000000D+00  E= 1.167920D+00  Symmetry=b1
              MO Center=  2.2D-16,  1.0D-16, -5.2D-02, r^2= 1.1D+00
   Bfn.  Coefficient  Atom+Function         Bfn.  Coefficient  Atom+Function  
  ----- ------------  ---------------      ----- ------------  ---------------
     7     -1.035841  1 O  px                 3      0.963022  1 O  px         

 Vector   11  Occ=0.000000D+00  E= 1.186234D+00  Symmetry=a1
              MO Center= -3.9D-16, -2.4D-16,  2.2D-01, r^2= 1.1D+00
   Bfn.  Coefficient  Atom+Function         Bfn.  Coefficient  Atom+Function  
  ----- ------------  ---------------      ----- ------------  ---------------
    16     -0.731224  2 H  s                 18     -0.731224  3 H  s          
     5      0.697993  1 O  pz                17      0.397682  2 H  s          
    19      0.397682  3 H  s                  6      0.281260  1 O  s          
     9     -0.256614  1 O  pz                13     -0.234467  1 O  dyy        

 Vector   12  Occ=0.000000D+00  E= 1.387039D+00  Symmetry=b2
              MO Center=  9.9D-32,  7.6D-17,  2.1D-02, r^2= 1.4D+00
   Bfn.  Coefficient  Atom+Function         Bfn.  Coefficient  Atom+Function  
  ----- ------------  ---------------      ----- ------------  ---------------
     8      1.537648  1 O  py                 4     -1.041578  1 O  py         
    17      0.947616  2 H  s                 19     -0.947616  3 H  s          

 Vector   13  Occ=0.000000D+00  E= 1.432609D+00  Symmetry=a1
              MO Center=  2.6D-16, -4.0D-16,  4.5D-01, r^2= 1.4D+00
   Bfn.  Coefficient  Atom+Function         Bfn.  Coefficient  Atom+Function  
  ----- ------------  ---------------      ----- ------------  ---------------
     6      3.665507  1 O  s                  2     -1.449539  1 O  s          
     9      1.161243  1 O  pz                17     -0.820990  2 H  s          
    19     -0.820990  3 H  s                 13     -0.644747  1 O  dyy        
     5     -0.495397  1 O  pz                15     -0.405059  1 O  dzz        
    16     -0.303297  2 H  s                 18     -0.303297  3 H  s          

 Vector   14  Occ=0.000000D+00  E= 2.018261D+00  Symmetry=a1
              MO Center= -6.4D-18, -4.3D-19, -1.0D-01, r^2= 6.2D-01
   Bfn.  Coefficient  Atom+Function         Bfn.  Coefficient  Atom+Function  
  ----- ------------  ---------------      ----- ------------  ---------------
    15      1.010675  1 O  dzz               13     -0.567843  1 O  dyy        
    10     -0.380792  1 O  dxx                6     -0.236863  1 O  s          

 Vector   15  Occ=0.000000D+00  E= 2.029353D+00  Symmetry=a2
              MO Center= -1.4D-17, -3.5D-16, -5.6D-02, r^2= 6.1D-01
   Bfn.  Coefficient  Atom+Function         Bfn.  Coefficient  Atom+Function  
  ----- ------------  ---------------      ----- ------------  ---------------
    11      1.732051  1 O  dxy        


 center of mass
 --------------
 x =   0.00000000 y =   0.00000000 z =   0.01556943

 moments of inertia (a.u.)
 ------------------
           6.116683182615           0.000000000000           0.000000000000
           0.000000000000           2.088967152633           0.000000000000
           0.000000000000           0.000000000000           4.027716029981

  Mulliken analysis of the total density
  --------------------------------------

    Atom       Charge   Shell Charges
 -----------   ------   -------------------------------------------------------
    1 O    8     8.87   2.00  0.90  2.91  0.91  2.06  0.08
    2 H    1     0.57   0.47  0.10
    3 H    1     0.57   0.47  0.10

       Multipole analysis of the density wrt the origin
       ------------------------------------------------

     L   x y z        total         open         nuclear
     -   - - -        -----         ----         -------
     0   0 0 0     -0.000000      0.000000     10.000000

     1   1 0 0      0.000000      0.000000      0.000000
     1   0 1 0      0.000000      0.000000      0.000000
     1   0 0 1      0.864902      0.000000      1.107248

     2   2 0 0     -5.348116      0.000000      0.000000
     2   1 1 0      0.000000      0.000000      0.000000
     2   1 0 1     -0.000000      0.000000      0.000000
     2   0 2 0     -3.070320      0.000000      3.996444
     2   0 1 1     -0.000000      0.000000      0.000000
     2   0 0 2     -4.262784      0.000000      1.989761

 Line search: 
     step= 1.00 grad=-7.3D-04 hess= 5.6D-04 energy=    -76.010666 mode=downhill
 new step= 0.65                   predicted energy=    -76.010735

          --------
          Step   1
          --------


                         Geometry "geometry" -> "geometry"
                         ---------------------------------

 Output coordinates in angstroms (scale by  1.889725989 to convert to a.u.)

  No.       Tag          Charge          X              Y              Z
 ---- ---------------- ---------- -------------- -------------- --------------
    1 O                    8.0000     0.00000000     0.00000000    -0.05918990
    2 H                    1.0000     0.00000000    -0.75135815     0.51764130
    3 H                    1.0000     0.00000000     0.75135815     0.51764130

      Atomic Mass 
      ----------- 

      O                 15.994910
      H                  1.007825


 Effective nuclear repulsion energy (a.u.)       9.2905263296

            Nuclear Dipole moment (a.u.) 
            ----------------------------
        X                 Y               Z
 ---------------- ---------------- ----------------
     0.0000000000     0.0000000000     1.0615789064

      Symmetry information
      --------------------

 Group name             C2v       
 Group number             16
 Group order               4
 No. of unique centers     2

      Symmetry unique atoms

     1    2

                                 NWChem SCF Module
                                 -----------------



  ao basis        = "ao basis"
  functions       =    19
  atoms           =     3
  closed shells   =     5
  open shells     =     0
  charge          =   0.00
  wavefunction    = RHF 
  input vectors   = ./nwchem.movecs
  output vectors  = ./nwchem.movecs
  use symmetry    = T
  symmetry adapt  = T


 Summary of "ao basis" -> "ao basis" (cartesian)
 ------------------------------------------------------------------------------
       Tag                 Description            Shells   Functions and Types
 ---------------- ------------------------------  ------  ---------------------
 O                           6-31g*                  6       15   3s2p1d
 H                           6-31g*                  2        2   2s


      Symmetry analysis of basis
      --------------------------

        a1         10
        a2          1
        b1          3
        b2          5


 Forming initial guess at       0.7s


 Loading old vectors from job with title :




      Symmetry analysis of molecular orbitals - initial
      -------------------------------------------------

  Numbering of irreducible representations: 

     1 a1          2 a2          3 b1          4 b2      

  Orbital symmetries:

     1 a1          2 a1          3 b2          4 a1          5 b1      
     6 a1          7 b2          8 b2          9 a1         10 b1      
    11 a1         12 b2         13 a1         14 a1         15 a2      


 Starting SCF solution at       0.7s



 ----------------------------------------------
         Quadratically convergent ROHF

 Convergence threshold     :          1.000E-08
 Maximum no. of iterations :           30
 Final Fock-matrix accuracy:          1.000E-10
 ----------------------------------------------


              iter       energy          gnorm     gmax       time
             ----- ------------------- --------- --------- --------
                 1      -76.0107114617  1.93D-02  8.56D-03      0.7
                 2      -76.0107382579  3.29D-04  1.46D-04      0.8
                 3      -76.0107382702  1.08D-07  4.67D-08      0.9
                 4      -76.0107382702  2.82D-10  1.26D-10      1.0


       Final RHF  results 
       ------------------ 

         Total SCF energy =    -76.010738270177
      One-electron energy =   -123.225618067581
      Two-electron energy =     37.924353467832
 Nuclear repulsion energy =      9.290526329572

        Time for solution =      0.3s



       Symmetry analysis of molecular orbitals - final
       -----------------------------------------------

  Numbering of irreducible representations: 

     1 a1          2 a2          3 b1          4 b2      

  Orbital symmetries:

     1 a1          2 a1          3 b2          4 a1          5 b1      
     6 a1          7 b2          8 b2          9 a1         10 b1      
    11 a1         12 b2         13 a1         14 a1         15 a2      

             Final eigenvalues
             -----------------

              1      
    1  -20.5582
    2   -1.3466
    3   -0.7133
    4   -0.5719
    5   -0.4984
    6    0.2129
    7    0.3069
    8    1.0292
    9    1.1338
   10    1.1679
   11    1.1806
   12    1.3847
   13    1.4331
   14    2.0190
   15    2.0310

                       ROHF Final Molecular Orbital Analysis
                       -------------------------------------

 Vector    2  Occ=2.000000D+00  E=-1.346638D+00  Symmetry=a1
              MO Center=  2.6D-17,  2.7D-16,  1.2D-01, r^2= 5.0D-01
   Bfn.  Coefficient  Atom+Function         Bfn.  Coefficient  Atom+Function  
  ----- ------------  ---------------      ----- ------------  ---------------
     2      0.475660  1 O  s                  6      0.435022  1 O  s          
     1     -0.209468  1 O  s          

 Vector    3  Occ=2.000000D+00  E=-7.133191D-01  Symmetry=b2
              MO Center=  8.6D-21, -2.8D-16,  1.6D-01, r^2= 7.6D-01
   Bfn.  Coefficient  Atom+Function         Bfn.  Coefficient  Atom+Function  
  ----- ------------  ---------------      ----- ------------  ---------------
     4      0.509169  1 O  py                 8      0.304244  1 O  py         
    16     -0.232239  2 H  s                 18      0.232239  3 H  s          

 Vector    4  Occ=2.000000D+00  E=-5.719089D-01  Symmetry=a1
              MO Center= -2.1D-19, -4.3D-18, -1.2D-01, r^2= 6.8D-01
   Bfn.  Coefficient  Atom+Function         Bfn.  Coefficient  Atom+Function  
  ----- ------------  ---------------      ----- ------------  ---------------
     5      0.557156  1 O  pz                 9      0.403845  1 O  pz         
     6     -0.326575  1 O  s                  2     -0.164454  1 O  s          

 Vector    5  Occ=2.000000D+00  E=-4.984304D-01  Symmetry=b1
              MO Center= -3.6D-17, -1.3D-16, -3.9D-02, r^2= 6.0D-01
   Bfn.  Coefficient  Atom+Function         Bfn.  Coefficient  Atom+Function  
  ----- ------------  ---------------      ----- ------------  ---------------
     3      0.639337  1 O  px                 7      0.511754  1 O  px         

 Vector    6  Occ=0.000000D+00  E= 2.129487D-01  Symmetry=a1
              MO Center= -8.0D-17, -1.1D-16,  7.1D-01, r^2= 2.6D+00
   Bfn.  Coefficient  Atom+Function         Bfn.  Coefficient  Atom+Function  
  ----- ------------  ---------------      ----- ------------  ---------------
     6      1.438674  1 O  s                 17     -1.051003  2 H  s          
    19     -1.051003  3 H  s                  9      0.504672  1 O  pz         
     5      0.212525  1 O  pz         

 Vector    7  Occ=0.000000D+00  E= 3.068535D-01  Symmetry=b2
              MO Center=  1.0D-22,  7.8D-16,  6.8D-01, r^2= 2.7D+00
   Bfn.  Coefficient  Atom+Function         Bfn.  Coefficient  Atom+Function  
  ----- ------------  ---------------      ----- ------------  ---------------
    17      1.414700  2 H  s                 19     -1.414700  3 H  s          
     8      0.839474  1 O  py                 4      0.325911  1 O  py         

 Vector    8  Occ=0.000000D+00  E= 1.029213D+00  Symmetry=b2
              MO Center= -1.2D-32, -6.9D-17,  8.2D-02, r^2= 1.4D+00
   Bfn.  Coefficient  Atom+Function         Bfn.  Coefficient  Atom+Function  
  ----- ------------  ---------------      ----- ------------  ---------------
    16      0.838773  2 H  s                 18     -0.838773  3 H  s          
     8      0.706399  1 O  py                17     -0.424078  2 H  s          
    19      0.424078  3 H  s                 14     -0.342721  1 O  dyz        

 Vector    9  Occ=0.000000D+00  E= 1.133820D+00  Symmetry=a1
              MO Center=  1.7D-17, -1.3D-16, -2.3D-01, r^2= 1.5D+00
   Bfn.  Coefficient  Atom+Function         Bfn.  Coefficient  Atom+Function  
  ----- ------------  ---------------      ----- ------------  ---------------
     6      1.615306  1 O  s                  2     -0.908162  1 O  s          
     9     -0.761012  1 O  pz                 5      0.493015  1 O  pz         
    16      0.493392  2 H  s                 18      0.493392  3 H  s          
    17     -0.426334  2 H  s                 19     -0.426334  3 H  s          
    10     -0.376196  1 O  dxx               15     -0.320677  1 O  dzz        

 Vector   10  Occ=0.000000D+00  E= 1.167879D+00  Symmetry=b1
              MO Center=  2.2D-16,  1.0D-16, -5.6D-02, r^2= 1.1D+00
   Bfn.  Coefficient  Atom+Function         Bfn.  Coefficient  Atom+Function  
  ----- ------------  ---------------      ----- ------------  ---------------
     7     -1.035913  1 O  px                 3      0.962925  1 O  px         

 Vector   11  Occ=0.000000D+00  E= 1.180620D+00  Symmetry=a1
              MO Center= -4.0D-16,  7.8D-17,  1.8D-01, r^2= 1.1D+00
   Bfn.  Coefficient  Atom+Function         Bfn.  Coefficient  Atom+Function  
  ----- ------------  ---------------      ----- ------------  ---------------
     5      0.720262  1 O  pz                16     -0.709435  2 H  s          
    18     -0.709435  3 H  s                 17      0.387089  2 H  s          
    19      0.387089  3 H  s                  6      0.335790  1 O  s          
     9     -0.296062  1 O  pz                13     -0.238680  1 O  dyy        

 Vector   12  Occ=0.000000D+00  E= 1.384698D+00  Symmetry=b2
              MO Center=  0.0D+00,  1.5D-16,  1.1D-02, r^2= 1.4D+00
   Bfn.  Coefficient  Atom+Function         Bfn.  Coefficient  Atom+Function  
  ----- ------------  ---------------      ----- ------------  ---------------
     8      1.537849  1 O  py                 4     -1.040039  1 O  py         
    17      0.935511  2 H  s                 19     -0.935511  3 H  s          

 Vector   13  Occ=0.000000D+00  E= 1.433055D+00  Symmetry=a1
              MO Center=  2.6D-16, -1.5D-16,  4.5D-01, r^2= 1.4D+00
   Bfn.  Coefficient  Atom+Function         Bfn.  Coefficient  Atom+Function  
  ----- ------------  ---------------      ----- ------------  ---------------
     6      3.631707  1 O  s                  2     -1.437982  1 O  s          
     9      1.166255  1 O  pz                17     -0.807514  2 H  s          
    19     -0.807514  3 H  s                 13     -0.644797  1 O  dyy        
     5     -0.499422  1 O  pz                15     -0.403957  1 O  dzz        
    16     -0.310798  2 H  s                 18     -0.310798  3 H  s          

 Vector   14  Occ=0.000000D+00  E= 2.018961D+00  Symmetry=a1
              MO Center= -6.1D-18,  1.4D-17, -1.1D-01, r^2= 6.2D-01
   Bfn.  Coefficient  Atom+Function         Bfn.  Coefficient  Atom+Function  
  ----- ------------  ---------------      ----- ------------  ---------------
    15      1.010061  1 O  dzz               13     -0.572384  1 O  dyy        
    10     -0.375808  1 O  dxx                6     -0.233401  1 O  s          

 Vector   15  Occ=0.000000D+00  E= 2.030986D+00  Symmetry=a2
              MO Center= -1.4D-17, -3.5D-16, -5.9D-02, r^2= 6.1D-01
   Bfn.  Coefficient  Atom+Function         Bfn.  Coefficient  Atom+Function  
  ----- ------------  ---------------      ----- ------------  ---------------
    11      1.732051  1 O  dxy        


 center of mass
 --------------
 x =   0.00000000 y =   0.00000000 z =   0.01014047

 moments of inertia (a.u.)
 ------------------
           6.190548252942           0.000000000000           0.000000000000
           0.000000000000           2.126987101456           0.000000000000
           0.000000000000           0.000000000000           4.063561151486

  Mulliken analysis of the total density
  --------------------------------------

    Atom       Charge   Shell Charges
 -----------   ------   -------------------------------------------------------
    1 O    8     8.87   2.00  0.90  2.91  0.91  2.06  0.08
    2 H    1     0.57   0.47  0.10
    3 H    1     0.57   0.47  0.10

       Multipole analysis of the density wrt the origin
       ------------------------------------------------

     L   x y z        total         open         nuclear
     -   - - -        -----         ----         -------
     0   0 0 0     -0.000000      0.000000     10.000000

     1   1 0 0      0.000000      0.000000      0.000000
     1   0 1 0      0.000000      0.000000      0.000000
     1   0 0 1      0.868733      0.000000      1.061579

     2   2 0 0     -5.357182      0.000000      0.000000
     2   1 1 0      0.000000      0.000000      0.000000
     2   1 0 1     -0.000000      0.000000      0.000000
     2   0 2 0     -3.070306      0.000000      4.032011
     2   0 1 1     -0.000000      0.000000      0.000000
     2   0 0 2     -4.266637      0.000000      2.013839

                              NWChem Gradients Module
                              -----------------------



  wavefunction    =   RHF     

  Using symmetry


                         RHF ENERGY GRADIENTS

    atom               coordinates                        gradient
                 x          y          z           x          y          z
   1 O       0.000000   0.000000  -0.111853    0.000000000000   0.000000000000  -0.001153797447
   2 H       0.000000  -1.419861   0.978200    0.000000000000   0.000881775000   0.000576898724
   3 H       0.000000   1.419861   0.978200   -0.000000000000  -0.000881775000   0.000576898724

                 ----------------------------------------
                 |  Time  |  1-e(secs)   |  2-e(secs)   |
                 ----------------------------------------
                 |  CPU   |       0.00   |       0.03   |
                 ----------------------------------------
                 |  WALL  |       0.00   |       0.03   |
                 ----------------------------------------

  Step       Energy      Delta E   Gmax     Grms     Xrms     Xmax   Walltime
  ---- ---------------- -------- -------- -------- -------- -------- --------
@    1     -76.01073827 -2.4D-04  0.00094  0.00061  0.00741  0.01211      1.0
                                                                    



                                Z-matrix (autoz)
                                -------- 

 Units are Angstrom for bonds and degrees for angles

      Type          Name      I     J     K     L     M      Value     Gradient
      ----------- --------  ----- ----- ----- ----- ----- ---------- ----------
    1 Stretch                  1     2                       0.94725   -0.00035
    2 Stretch                  1     3                       0.94725   -0.00035
    3 Bend                     2     1     3               104.97180   -0.00094

                                 NWChem SCF Module
                                 -----------------



  ao basis        = "ao basis"
  functions       =    19
  atoms           =     3
  closed shells   =     5
  open shells     =     0
  charge          =   0.00
  wavefunction    = RHF 
  input vectors   = ./nwchem.movecs
  output vectors  = ./nwchem.movecs
  use symmetry    = T
  symmetry adapt  = T


 Summary of "ao basis" -> "ao basis" (cartesian)
 ------------------------------------------------------------------------------
       Tag                 Description            Shells   Functions and Types
 ---------------- ------------------------------  ------  ---------------------
 O                           6-31g*                  6       15   3s2p1d
 H                           6-31g*                  2        2   2s


      Symmetry analysis of basis
      --------------------------

        a1         10
        a2          1
        b1          3
        b2          5


 Forming initial guess at       1.0s


 Loading old vectors from job with title :




      Symmetry analysis of molecular orbitals - initial
      -------------------------------------------------

  Numbering of irreducible representations: 

     1 a1          2 a2          3 b1          4 b2      

  Orbital symmetries:

     1 a1          2 a1          3 b2          4 a1          5 b1      
     6 a1          7 b2          8 b2          9 a1         10 b1      
    11 a1         12 b2         13 a1         14 a1         15 a2      


 Starting SCF solution at       1.1s



 ----------------------------------------------
         Quadratically convergent ROHF

 Convergence threshold     :          1.000E-08
 Maximum no. of iterations :           30
 Final Fock-matrix accuracy:          1.000E-10
 ----------------------------------------------


              iter       energy          gnorm     gmax       time
             ----- ------------------- --------- --------- --------
                 1      -76.0107426133  7.57D-03  3.17D-03      1.1
                 2      -76.0107463388  2.03D-05  9.88D-06      1.2
                 3      -76.0107463389  9.45D-10  4.16D-10      1.3


       Final RHF  results 
       ------------------ 

         Total SCF energy =    -76.010746338864
      One-electron energy =   -123.223715945089
      Two-electron energy =     37.924751444952
 Nuclear repulsion energy =      9.288218161273

        Time for solution =      0.2s



       Symmetry analysis of molecular orbitals - final
       -----------------------------------------------

  Numbering of irreducible representations: 

     1 a1          2 a2          3 b1          4 b2      

  Orbital symmetries:

     1 a1          2 a1          3 b2          4 a1          5 b1      
     6 a1          7 b2          8 b2          9 a1         10 b1      
    11 a1         12 b2         13 a1         14 a1         15 a2      

             Final eigenvalues
             -----------------

              1      
    1  -20.5578
    2   -1.3461
    3   -0.7144
    4   -0.5706
    5   -0.4982
    6    0.2130
    7    0.3069
    8    1.0321
    9    1.1333
   10    1.1680
   11    1.1781
   12    1.3852
   13    1.4309
   14    2.0208
   15    2.0305

                       ROHF Final Molecular Orbital Analysis
                       -------------------------------------

 Vector    2  Occ=2.000000D+00  E=-1.346056D+00  Symmetry=a1
              MO Center=  2.6D-17,  2.7D-16,  1.2D-01, r^2= 5.0D-01
   Bfn.  Coefficient  Atom+Function         Bfn.  Coefficient  Atom+Function  
  ----- ------------  ---------------      ----- ------------  ---------------
     2      0.475773  1 O  s                  6      0.435366  1 O  s          
     1     -0.209542  1 O  s          

 Vector    3  Occ=2.000000D+00  E=-7.144010D-01  Symmetry=b2
              MO Center= -7.6D-36, -2.4D-16,  1.6D-01, r^2= 7.6D-01
   Bfn.  Coefficient  Atom+Function         Bfn.  Coefficient  Atom+Function  
  ----- ------------  ---------------      ----- ------------  ---------------
     4      0.508878  1 O  py                 8      0.303816  1 O  py         
    16     -0.232483  2 H  s                 18      0.232483  3 H  s          

 Vector    4  Occ=2.000000D+00  E=-5.706372D-01  Symmetry=a1
              MO Center= -2.3D-19,  1.7D-18, -1.2D-01, r^2= 6.8D-01
   Bfn.  Coefficient  Atom+Function         Bfn.  Coefficient  Atom+Function  
  ----- ------------  ---------------      ----- ------------  ---------------
     5      0.557863  1 O  pz                 9      0.405010  1 O  pz         
     6     -0.325264  1 O  s                  2     -0.163525  1 O  s          

 Vector    5  Occ=2.000000D+00  E=-4.981773D-01  Symmetry=b1
              MO Center= -3.6D-17, -1.2D-16, -3.7D-02, r^2= 6.0D-01
   Bfn.  Coefficient  Atom+Function         Bfn.  Coefficient  Atom+Function  
  ----- ------------  ---------------      ----- ------------  ---------------
     3      0.639256  1 O  px                 7      0.511849  1 O  px         

 Vector    6  Occ=0.000000D+00  E= 2.130283D-01  Symmetry=a1
              MO Center= -7.9D-17, -1.1D-16,  7.0D-01, r^2= 2.6D+00
   Bfn.  Coefficient  Atom+Function         Bfn.  Coefficient  Atom+Function  
  ----- ------------  ---------------      ----- ------------  ---------------
     6      1.440029  1 O  s                 17     -1.051601  2 H  s          
    19     -1.051601  3 H  s                  9      0.502188  1 O  pz         
     5      0.211770  1 O  pz         

 Vector    7  Occ=0.000000D+00  E= 3.068680D-01  Symmetry=b2
              MO Center=  1.2D-32, -4.4D-16,  6.7D-01, r^2= 2.7D+00
   Bfn.  Coefficient  Atom+Function         Bfn.  Coefficient  Atom+Function  
  ----- ------------  ---------------      ----- ------------  ---------------
    17      1.413107  2 H  s                 19     -1.413107  3 H  s          
     8      0.840965  1 O  py                 4      0.325637  1 O  py         

 Vector    8  Occ=0.000000D+00  E= 1.032057D+00  Symmetry=b2
              MO Center= -2.0D-20, -1.4D-17,  8.1D-02, r^2= 1.4D+00
   Bfn.  Coefficient  Atom+Function         Bfn.  Coefficient  Atom+Function  
  ----- ------------  ---------------      ----- ------------  ---------------
    16      0.839556  2 H  s                 18     -0.839556  3 H  s          
     8      0.709190  1 O  py                17     -0.420292  2 H  s          
    19      0.420292  3 H  s                 14     -0.344972  1 O  dyz        

 Vector    9  Occ=0.000000D+00  E= 1.133319D+00  Symmetry=a1
              MO Center=  2.2D-17,  1.7D-16, -1.9D-01, r^2= 1.5D+00
   Bfn.  Coefficient  Atom+Function         Bfn.  Coefficient  Atom+Function  
  ----- ------------  ---------------      ----- ------------  ---------------
     6      1.579364  1 O  s                  2     -0.897086  1 O  s          
     9     -0.755304  1 O  pz                16      0.521409  2 H  s          
    18      0.521409  3 H  s                  5      0.470028  1 O  pz         
    17     -0.437876  2 H  s                 19     -0.437876  3 H  s          
    10     -0.375911  1 O  dxx               15     -0.316607  1 O  dzz        

 Vector   10  Occ=0.000000D+00  E= 1.168050D+00  Symmetry=b1
              MO Center=  2.2D-16,  1.0D-16, -5.3D-02, r^2= 1.1D+00
   Bfn.  Coefficient  Atom+Function         Bfn.  Coefficient  Atom+Function  
  ----- ------------  ---------------      ----- ------------  ---------------
     7     -1.035872  1 O  px                 3      0.962979  1 O  px         

 Vector   11  Occ=0.000000D+00  E= 1.178149D+00  Symmetry=a1
              MO Center= -4.1D-16,  6.4D-17,  1.4D-01, r^2= 1.1D+00
   Bfn.  Coefficient  Atom+Function         Bfn.  Coefficient  Atom+Function  
  ----- ------------  ---------------      ----- ------------  ---------------
     5      0.733535  1 O  pz                16     -0.691768  2 H  s          
    18     -0.691768  3 H  s                  6      0.422999  1 O  s          
    17      0.365228  2 H  s                 19      0.365228  3 H  s          
     9     -0.318539  1 O  pz                13     -0.251222  1 O  dyy        

 Vector   12  Occ=0.000000D+00  E= 1.385173D+00  Symmetry=b2
              MO Center=  9.9D-32, -4.2D-16,  1.3D-02, r^2= 1.4D+00
   Bfn.  Coefficient  Atom+Function         Bfn.  Coefficient  Atom+Function  
  ----- ------------  ---------------      ----- ------------  ---------------
     8      1.541435  1 O  py                 4     -1.040353  1 O  py         
    17      0.934610  2 H  s                 19     -0.934610  3 H  s          

 Vector   13  Occ=0.000000D+00  E= 1.430934D+00  Symmetry=a1
              MO Center=  2.6D-16,  1.4D-17,  4.5D-01, r^2= 1.4D+00
   Bfn.  Coefficient  Atom+Function         Bfn.  Coefficient  Atom+Function  
  ----- ------------  ---------------      ----- ------------  ---------------
     6      3.638610  1 O  s                  2     -1.444264  1 O  s          
     9      1.157153  1 O  pz                17     -0.812954  2 H  s          
    19     -0.812954  3 H  s                 13     -0.643757  1 O  dyy        
     5     -0.501452  1 O  pz                15     -0.403591  1 O  dzz        
    16     -0.299846  2 H  s                 18     -0.299846  3 H  s          

 Vector   14  Occ=0.000000D+00  E= 2.020798D+00  Symmetry=a1
              MO Center= -6.5D-18, -1.2D-17, -1.0D-01, r^2= 6.2D-01
   Bfn.  Coefficient  Atom+Function         Bfn.  Coefficient  Atom+Function  
  ----- ------------  ---------------      ----- ------------  ---------------
    15      1.011465  1 O  dzz               13     -0.562781  1 O  dyy        
    10     -0.386595  1 O  dxx                6     -0.234140  1 O  s          

 Vector   15  Occ=0.000000D+00  E= 2.030518D+00  Symmetry=a2
              MO Center= -1.5D-17, -3.5D-16, -5.7D-02, r^2= 6.1D-01
   Bfn.  Coefficient  Atom+Function         Bfn.  Coefficient  Atom+Function  
  ----- ------------  ---------------      ----- ------------  ---------------
    11      1.732051  1 O  dxy        


 center of mass
 --------------
 x =   0.00000000 y =   0.00000000 z =   0.01423917

 moments of inertia (a.u.)
 ------------------
           6.195414173174           0.000000000000           0.000000000000
           0.000000000000           2.098251507276           0.000000000000
           0.000000000000           0.000000000000           4.097162665898

  Mulliken analysis of the total density
  --------------------------------------

    Atom       Charge   Shell Charges
 -----------   ------   -------------------------------------------------------
    1 O    8     8.87   2.00  0.90  2.91  0.91  2.07  0.08
    2 H    1     0.57   0.47  0.10
    3 H    1     0.57   0.47  0.10

       Multipole analysis of the density wrt the origin
       ------------------------------------------------

     L   x y z        total         open         nuclear
     -   - - -        -----         ----         -------
     0   0 0 0     -0.000000      0.000000     10.000000

     1   1 0 0      0.000000      0.000000      0.000000
     1   0 1 0      0.000000      0.000000      0.000000
     1   0 0 1      0.864593      0.000000      1.096058

     2   2 0 0     -5.357281      0.000000      0.000000
     2   1 1 0      0.000000      0.000000      0.000000
     2   1 0 1     -0.000000      0.000000      0.000000
     2   0 2 0     -3.049769      0.000000      4.065351
     2   0 1 1     -0.000000      0.000000      0.000000
     2   0 0 2     -4.273541      0.000000      1.995594

 Line search: 
     step= 1.00 grad=-1.9D-05 hess= 1.1D-05 energy=    -76.010746 mode=downhill
 new step= 0.87                   predicted energy=    -76.010747

          --------
          Step   2
          --------


                         Geometry "geometry" -> "geometry"
                         ---------------------------------

 Output coordinates in angstroms (scale by  1.889725989 to convert to a.u.)

  No.       Tag          Charge          X              Y              Z
 ---- ---------------- ---------- -------------- -------------- --------------
    1 O                    8.0000     0.00000000     0.00000000    -0.05691388
    2 H                    1.0000     0.00000000    -0.75406704     0.51650328
    3 H                    1.0000     0.00000000     0.75406704     0.51650328

      Atomic Mass 
      ----------- 

      O                 15.994910
      H                  1.007825


 Effective nuclear repulsion energy (a.u.)       9.2885090762

            Nuclear Dipole moment (a.u.) 
            ----------------------------
        X                 Y               Z
 ---------------- ---------------- ----------------
     0.0000000000     0.0000000000     1.0916863275

      Symmetry information
      --------------------

 Group name             C2v       
 Group number             16
 Group order               4
 No. of unique centers     2

      Symmetry unique atoms

     1    2

                                 NWChem SCF Module
                                 -----------------



  ao basis        = "ao basis"
  functions       =    19
  atoms           =     3
  closed shells   =     5
  open shells     =     0
  charge          =   0.00
  wavefunction    = RHF 
  input vectors   = ./nwchem.movecs
  output vectors  = ./nwchem.movecs
  use symmetry    = T
  symmetry adapt  = T


 Summary of "ao basis" -> "ao basis" (cartesian)
 ------------------------------------------------------------------------------
       Tag                 Description            Shells   Functions and Types
 ---------------- ------------------------------  ------  ---------------------
 O                           6-31g*                  6       15   3s2p1d
 H                           6-31g*                  2        2   2s


      Symmetry analysis of basis
      --------------------------

        a1         10
        a2          1
        b1          3
        b2          5


 Forming initial guess at       1.3s


 Loading old vectors from job with title :




      Symmetry analysis of molecular orbitals - initial
      -------------------------------------------------

  Numbering of irreducible representations: 

     1 a1          2 a2          3 b1          4 b2      

  Orbital symmetries:

     1 a1          2 a1          3 b2          4 a1          5 b1      
     6 a1          7 b2          8 b2          9 a1         10 b1      
    11 a1         12 b2         13 a1         14 a1         15 a2      


 Starting SCF solution at       1.3s



 ----------------------------------------------
         Quadratically convergent ROHF

 Convergence threshold     :          1.000E-08
 Maximum no. of iterations :           30
 Final Fock-matrix accuracy:          1.000E-10
 ----------------------------------------------


              iter       energy          gnorm     gmax       time
             ----- ------------------- --------- --------- --------
                 1      -76.0107464487  9.58D-04  3.99D-04      1.3
                 2      -76.0107465083  3.63D-07  1.74D-07      1.4
                 3      -76.0107465083  2.29D-10  1.21D-10      1.5


       Final RHF  results 
       ------------------ 

         Total SCF energy =    -76.010746508337
      One-electron energy =   -123.223955354742
      Two-electron energy =     37.924699770224
 Nuclear repulsion energy =      9.288509076181

        Time for solution =      0.2s



       Symmetry analysis of molecular orbitals - final
       -----------------------------------------------

  Numbering of irreducible representations: 

     1 a1          2 a2          3 b1          4 b2      

  Orbital symmetries:

     1 a1          2 a1          3 b2          4 a1          5 b1      
     6 a1          7 b2          8 b2          9 a1         10 b1      
    11 a1         12 b2         13 a1         14 a1         15 a2      

             Final eigenvalues
             -----------------

              1      
    1  -20.5579
    2   -1.3461
    3   -0.7143
    4   -0.5708
    5   -0.4982
    6    0.2130
    7    0.3069
    8    1.0317
    9    1.1334
   10    1.1680
   11    1.1785
   12    1.3851
   13    1.4312
   14    2.0206
   15    2.0306

                       ROHF Final Molecular Orbital Analysis
                       -------------------------------------

 Vector    2  Occ=2.000000D+00  E=-1.346129D+00  Symmetry=a1
              MO Center=  3.3D-21, -2.5D-18,  1.2D-01, r^2= 5.0D-01
   Bfn.  Coefficient  Atom+Function         Bfn.  Coefficient  Atom+Function  
  ----- ------------  ---------------      ----- ------------  ---------------
     2      0.475759  1 O  s                  6      0.435322  1 O  s          
     1     -0.209533  1 O  s          

 Vector    3  Occ=2.000000D+00  E=-7.142647D-01  Symmetry=b2
              MO Center=  1.1D-21, -6.9D-18,  1.6D-01, r^2= 7.6D-01
   Bfn.  Coefficient  Atom+Function         Bfn.  Coefficient  Atom+Function  
  ----- ------------  ---------------      ----- ------------  ---------------
     4      0.508914  1 O  py                 8      0.303870  1 O  py         
    16     -0.232452  2 H  s                 18      0.232452  3 H  s          

 Vector    4  Occ=2.000000D+00  E=-5.707980D-01  Symmetry=a1
              MO Center= -2.3D-19,  5.2D-18, -1.2D-01, r^2= 6.8D-01
   Bfn.  Coefficient  Atom+Function         Bfn.  Coefficient  Atom+Function  
  ----- ------------  ---------------      ----- ------------  ---------------
     5      0.557774  1 O  pz                 9      0.404862  1 O  pz         
     6     -0.325430  1 O  s                  2     -0.163642  1 O  s          

 Vector    5  Occ=2.000000D+00  E=-4.982094D-01  Symmetry=b1
              MO Center= -2.5D-17, -1.2D-16, -3.7D-02, r^2= 6.0D-01
   Bfn.  Coefficient  Atom+Function         Bfn.  Coefficient  Atom+Function  
  ----- ------------  ---------------      ----- ------------  ---------------
     3      0.639266  1 O  px                 7      0.511837  1 O  px         

 Vector    6  Occ=0.000000D+00  E= 2.130187D-01  Symmetry=a1
              MO Center= -8.0D-17, -1.1D-16,  7.0D-01, r^2= 2.6D+00
   Bfn.  Coefficient  Atom+Function         Bfn.  Coefficient  Atom+Function  
  ----- ------------  ---------------      ----- ------------  ---------------
     6      1.439859  1 O  s                 17     -1.051527  2 H  s          
    19     -1.051527  3 H  s                  9      0.502503  1 O  pz         
     5      0.211866  1 O  pz         

 Vector    7  Occ=0.000000D+00  E= 3.068662D-01  Symmetry=b2
              MO Center= -3.8D-23, -7.8D-16,  6.8D-01, r^2= 2.7D+00
   Bfn.  Coefficient  Atom+Function         Bfn.  Coefficient  Atom+Function  
  ----- ------------  ---------------      ----- ------------  ---------------
    17      1.413306  2 H  s                 19     -1.413306  3 H  s          
     8      0.840776  1 O  py                 4      0.325672  1 O  py         

 Vector    8  Occ=0.000000D+00  E= 1.031694D+00  Symmetry=b2
              MO Center= -1.8D-20,  0.0D+00,  8.1D-02, r^2= 1.4D+00
   Bfn.  Coefficient  Atom+Function         Bfn.  Coefficient  Atom+Function  
  ----- ------------  ---------------      ----- ------------  ---------------
    16      0.839456  2 H  s                 18     -0.839456  3 H  s          
     8      0.708842  1 O  py                17     -0.420768  2 H  s          
    19      0.420768  3 H  s                 14     -0.344685  1 O  dyz        

 Vector    9  Occ=0.000000D+00  E= 1.133391D+00  Symmetry=a1
              MO Center= -2.3D-18, -1.0D-16, -2.0D-01, r^2= 1.5D+00
   Bfn.  Coefficient  Atom+Function         Bfn.  Coefficient  Atom+Function  
  ----- ------------  ---------------      ----- ------------  ---------------
     6      1.584238  1 O  s                  2     -0.898617  1 O  s          
     9     -0.756139  1 O  pz                16      0.517748  2 H  s          
    18      0.517748  3 H  s                  5      0.473118  1 O  pz         
    17     -0.436390  2 H  s                 19     -0.436390  3 H  s          
    10     -0.375979  1 O  dxx               15     -0.317167  1 O  dzz        

 Vector   10  Occ=0.000000D+00  E= 1.168028D+00  Symmetry=b1
              MO Center=  2.6D-16,  1.0D-16, -5.3D-02, r^2= 1.1D+00
   Bfn.  Coefficient  Atom+Function         Bfn.  Coefficient  Atom+Function  
  ----- ------------  ---------------      ----- ------------  ---------------
     7     -1.035877  1 O  px                 3      0.962972  1 O  px         

 Vector   11  Occ=0.000000D+00  E= 1.178457D+00  Symmetry=a1
              MO Center= -4.1D-16,  1.1D-16,  1.5D-01, r^2= 1.1D+00
   Bfn.  Coefficient  Atom+Function         Bfn.  Coefficient  Atom+Function  
  ----- ------------  ---------------      ----- ------------  ---------------
     5      0.731785  1 O  pz                16     -0.694190  2 H  s          
    18     -0.694190  3 H  s                  6      0.411752  1 O  s          
    17      0.368107  2 H  s                 19      0.368107  3 H  s          
     9     -0.315510  1 O  pz                13     -0.249640  1 O  dyy        

 Vector   12  Occ=0.000000D+00  E= 1.385112D+00  Symmetry=b2
              MO Center=  2.0D-31,  1.3D-16,  1.2D-02, r^2= 1.4D+00
   Bfn.  Coefficient  Atom+Function         Bfn.  Coefficient  Atom+Function  
  ----- ------------  ---------------      ----- ------------  ---------------
     8      1.540978  1 O  py                 4     -1.040314  1 O  py         
    17      0.934723  2 H  s                 19     -0.934723  3 H  s          

 Vector   13  Occ=0.000000D+00  E= 1.431199D+00  Symmetry=a1
              MO Center=  2.6D-16, -2.2D-16,  4.5D-01, r^2= 1.4D+00
   Bfn.  Coefficient  Atom+Function         Bfn.  Coefficient  Atom+Function  
  ----- ------------  ---------------      ----- ------------  ---------------
     6      3.637758  1 O  s                  2     -1.443480  1 O  s          
     9      1.158310  1 O  pz                17     -0.812273  2 H  s          
    19     -0.812273  3 H  s                 13     -0.643897  1 O  dyy        
     5     -0.501205  1 O  pz                15     -0.403629  1 O  dzz        
    16     -0.301228  2 H  s                 18     -0.301228  3 H  s          

 Vector   14  Occ=0.000000D+00  E= 2.020565D+00  Symmetry=a1
              MO Center= -6.4D-18,  2.7D-17, -1.0D-01, r^2= 6.2D-01
   Bfn.  Coefficient  Atom+Function         Bfn.  Coefficient  Atom+Function  
  ----- ------------  ---------------      ----- ------------  ---------------
    15      1.011297  1 O  dzz               13     -0.563993  1 O  dyy        
    10     -0.385239  1 O  dxx                6     -0.234065  1 O  s          

 Vector   15  Occ=0.000000D+00  E= 2.030577D+00  Symmetry=a2
              MO Center= -1.5D-17, -3.5D-16, -5.7D-02, r^2= 6.1D-01
   Bfn.  Coefficient  Atom+Function         Bfn.  Coefficient  Atom+Function  
  ----- ------------  ---------------      ----- ------------  ---------------
    11      1.732051  1 O  dxy        


 center of mass
 --------------
 x =   0.00000000 y =   0.00000000 z =   0.01371950

 moments of inertia (a.u.)
 ------------------
           6.194798881944           0.000000000000           0.000000000000
           0.000000000000           2.101884025548           0.000000000000
           0.000000000000           0.000000000000           4.092914856396

  Mulliken analysis of the total density
  --------------------------------------

    Atom       Charge   Shell Charges
 -----------   ------   -------------------------------------------------------
    1 O    8     8.87   2.00  0.90  2.91  0.91  2.07  0.08
    2 H    1     0.57   0.47  0.10
    3 H    1     0.57   0.47  0.10

       Multipole analysis of the density wrt the origin
       ------------------------------------------------

     L   x y z        total         open         nuclear
     -   - - -        -----         ----         -------
     0   0 0 0     -0.000000      0.000000     10.000000

     1   1 0 0      0.000000      0.000000      0.000000
     1   0 1 0      0.000000      0.000000      0.000000
     1   0 0 1      0.865118      0.000000      1.091686

     2   2 0 0     -5.357268      0.000000      0.000000
     2   1 1 0      0.000000      0.000000      0.000000
     2   1 0 1     -0.000000      0.000000      0.000000
     2   0 2 0     -3.052367      0.000000      4.061136
     2   0 1 1      0.000000      0.000000      0.000000
     2   0 0 2     -4.272667      0.000000      1.997885

                              NWChem Gradients Module
                              -----------------------



  wavefunction    =   RHF     

  Using symmetry


                         RHF ENERGY GRADIENTS

    atom               coordinates                        gradient
[...]

 Vector    2  Occ=2.000000D+00  E=-1.346071D+00  Symmetry=a1
              MO Center= -6.6D-17,  4.2D-16,  1.1D-01, r^2= 5.0D-01
   Bfn.  Coefficient  Atom+Function         Bfn.  Coefficient  Atom+Function  
  ----- ------------  ---------------      ----- ------------  ---------------
     2      0.475769  1 O  s                  6      0.435359  1 O  s          
     1     -0.209539  1 O  s          

 Vector    3  Occ=2.000000D+00  E=-7.143451D-01  Symmetry=b2
              MO Center=  1.5D-18, -6.9D-16,  1.5D-01, r^2= 7.6D-01
   Bfn.  Coefficient  Atom+Function         Bfn.  Coefficient  Atom+Function  
  ----- ------------  ---------------      ----- ------------  ---------------
     4      0.508886  1 O  py                 8      0.303837  1 O  py         
    16     -0.232470  2 H  s                 18      0.232470  3 H  s          

 Vector    4  Occ=2.000000D+00  E=-5.706878D-01  Symmetry=a1
              MO Center=  1.3D-18,  4.6D-16, -1.3D-01, r^2= 6.8D-01
   Bfn.  Coefficient  Atom+Function         Bfn.  Coefficient  Atom+Function  
  ----- ------------  ---------------      ----- ------------  ---------------
     5      0.557831  1 O  pz                 9      0.404961  1 O  pz         
     6     -0.325316  1 O  s                  2     -0.163563  1 O  s          

 Vector    5  Occ=2.000000D+00  E=-4.981868D-01  Symmetry=b1
              MO Center=  8.9D-17, -1.4D-16, -4.4D-02, r^2= 6.0D-01
   Bfn.  Coefficient  Atom+Function         Bfn.  Coefficient  Atom+Function  
  ----- ------------  ---------------      ----- ------------  ---------------
     3      0.639259  1 O  px                 7      0.511844  1 O  px         

 Vector    6  Occ=0.000000D+00  E= 2.130212D-01  Symmetry=a1
              MO Center= -1.0D-16, -4.4D-16,  7.0D-01, r^2= 2.6D+00
   Bfn.  Coefficient  Atom+Function         Bfn.  Coefficient  Atom+Function  
  ----- ------------  ---------------      ----- ------------  ---------------
     6      1.439931  1 O  s                 17     -1.051560  2 H  s          
    19     -1.051560  3 H  s                  9      0.502297  1 O  pz         
     5      0.211810  1 O  pz         

 Vector    7  Occ=0.000000D+00  E= 3.068627D-01  Symmetry=b2
              MO Center=  1.5D-31, -5.6D-16,  6.7D-01, r^2= 2.7D+00
   Bfn.  Coefficient  Atom+Function         Bfn.  Coefficient  Atom+Function  
  ----- ------------  ---------------      ----- ------------  ---------------
    17      1.413135  2 H  s                 19     -1.413135  3 H  s          
     8      0.840893  1 O  py                 4      0.325655  1 O  py         

 Vector    8  Occ=0.000000D+00  E= 1.031926D+00  Symmetry=b2
              MO Center=  0.0D+00,  8.3D-17,  7.3D-02, r^2= 1.4D+00
   Bfn.  Coefficient  Atom+Function         Bfn.  Coefficient  Atom+Function  
  ----- ------------  ---------------      ----- ------------  ---------------
    16      0.839524  2 H  s                 18     -0.839524  3 H  s          
     8      0.708994  1 O  py                17     -0.420514  2 H  s          
    19      0.420514  3 H  s                 14     -0.344880  1 O  dyz        

 Vector    9  Occ=0.000000D+00  E= 1.133339D+00  Symmetry=a1
              MO Center= -1.5D-15,  1.5D-15, -2.0D-01, r^2= 1.5D+00
   Bfn.  Coefficient  Atom+Function         Bfn.  Coefficient  Atom+Function  
  ----- ------------  ---------------      ----- ------------  ---------------
     6      1.580999  1 O  s                  2     -0.897614  1 O  s          
     9     -0.755486  1 O  pz                16      0.520317  2 H  s          
    18      0.520317  3 H  s                  5      0.470905  1 O  pz         
    17     -0.437479  2 H  s                 19     -0.437479  3 H  s          
    10     -0.375956  1 O  dxx               15     -0.316787  1 O  dzz        

 Vector   10  Occ=0.000000D+00  E= 1.168043D+00  Symmetry=b1
              MO Center=  2.0D-15,  8.0D-17, -6.1D-02, r^2= 1.1D+00
   Bfn.  Coefficient  Atom+Function         Bfn.  Coefficient  Atom+Function  
  ----- ------------  ---------------      ----- ------------  ---------------
     7     -1.035874  1 O  px                 3      0.962977  1 O  px         

 Vector   11  Occ=0.000000D+00  E= 1.178232D+00  Symmetry=a1
              MO Center= -3.3D-16,  5.3D-16,  1.3D-01, r^2= 1.1D+00
   Bfn.  Coefficient  Atom+Function         Bfn.  Coefficient  Atom+Function  
  ----- ------------  ---------------      ----- ------------  ---------------
     5      0.733041  1 O  pz                16     -0.692474  2 H  s          
    18     -0.692474  3 H  s                  6      0.419553  1 O  s          
    17      0.366118  2 H  s                 19      0.366118  3 H  s          
     9     -0.317688  1 O  pz                13     -0.250725  1 O  dyy        

 Vector   12  Occ=0.000000D+00  E= 1.385146D+00  Symmetry=b2
              MO Center= -4.0D-17,  2.5D-15,  5.1D-03, r^2= 1.4D+00
   Bfn.  Coefficient  Atom+Function         Bfn.  Coefficient  Atom+Function  
  ----- ------------  ---------------      ----- ------------  ---------------
     8      1.541287  1 O  py                 4     -1.040336  1 O  py         
    17      0.934609  2 H  s                 19     -0.934609  3 H  s          

 Vector   13  Occ=0.000000D+00  E= 1.431021D+00  Symmetry=a1
              MO Center= -3.4D-17, -4.4D-15,  4.5D-01, r^2= 1.4D+00
   Bfn.  Coefficient  Atom+Function         Bfn.  Coefficient  Atom+Function  
  ----- ------------  ---------------      ----- ------------  ---------------
     6      3.638228  1 O  s                  2     -1.443974  1 O  s          
     9      1.157545  1 O  pz                17     -0.812691  2 H  s          
    19     -0.812691  3 H  s                 13     -0.643803  1 O  dyy        
     5     -0.501385  1 O  pz                15     -0.403599  1 O  dzz        
    16     -0.300319  2 H  s                 18     -0.300319  3 H  s          

 Vector   14  Occ=0.000000D+00  E= 2.020724D+00  Symmetry=a1
              MO Center= -1.9D-17,  1.4D-17, -1.1D-01, r^2= 6.2D-01
   Bfn.  Coefficient  Atom+Function         Bfn.  Coefficient  Atom+Function  
  ----- ------------  ---------------      ----- ------------  ---------------
    15      1.011409  1 O  dzz               13     -0.563189  1 O  dyy        
    10     -0.386139  1 O  dxx                6     -0.234106  1 O  s          

 Vector   15  Occ=0.000000D+00  E= 2.030543D+00  Symmetry=a2
              MO Center=  4.0D-17, -1.9D-16, -6.4D-02, r^2= 6.1D-01
   Bfn.  Coefficient  Atom+Function         Bfn.  Coefficient  Atom+Function  
  ----- ------------  ---------------      ----- ------------  ---------------
    11      1.732051  1 O  dxy        


 center of mass
 --------------
 x =   0.00000000 y =   0.00000000 z =   0.00000003

 moments of inertia (a.u.)
 ------------------
           6.195446665316           0.000000000000           0.000000000000
           0.000000000000           2.099550604086           0.000000000000
           0.000000000000           0.000000000000           4.095896061230

  Mulliken analysis of the total density
  --------------------------------------

    Atom       Charge   Shell Charges
 -----------   ------   -------------------------------------------------------
    1 O    8     8.87   2.00  0.90  2.91  0.91  2.07  0.08
    2 H    1     0.57   0.47  0.10
    3 H    1     0.57   0.47  0.10

       Multipole analysis of the density wrt the origin
       ------------------------------------------------

     L   x y z        total         open         nuclear
     -   - - -        -----         ----         -------
     0   0 0 0     -0.000000      0.000000     10.000000

     1   1 0 0     -0.000000      0.000000      0.000000
     1   0 1 0     -0.000000      0.000000      0.000000
     1   0 0 1      0.864775      0.000000      0.953962

     2   2 0 0     -5.357305      0.000000      0.000000
     2   1 1 0     -0.000000      0.000000      0.000000
     2   1 0 1      0.000000      0.000000      0.000000
     2   0 2 0     -3.050613      0.000000      4.064095
     2   0 1 1     -0.000000      0.000000      0.000000
     2   0 0 2     -4.297575      0.000000      1.967625

                              NWChem Gradients Module
                              -----------------------



  wavefunction    =   RHF     

  Using symmetry


                         RHF ENERGY GRADIENTS

    atom               coordinates                        gradient
                 x          y          z           x          y          z
   1 O       0.000000   0.000000  -0.121204    0.000000000000   0.000000000000   0.000077418121
   2 H       0.000000  -1.425499   0.961796    0.000000000000  -0.000106270412  -0.000038709060
   3 H       0.000000   1.425499   0.961796    0.000000000000   0.000106270412  -0.000038709060

                 ----------------------------------------
                 |  Time  |  1-e(secs)   |  2-e(secs)   |
                 ----------------------------------------
                 |  CPU   |       0.00   |       0.02   |
                 ----------------------------------------
                 |  WALL  |       0.00   |       0.02   |
                 ----------------------------------------

 Task  times  cpu:        0.4s     wall:        0.4s


                                NWChem Input Module
                                -------------------


 Summary of allocated global arrays
-----------------------------------
  No active global arrays



                         GA Statistics for process    0
                         ------------------------------

       create   destroy   get      put      acc     scatter   gather  read&inc
calls:  466      466     5349     1639     2198        0        0      826     
number of processes/call 1.00e+00 1.00e+00 1.00e+00 0.00e+00 0.00e+00
bytes total:             1.56e+06 9.07e+05 5.73e+05 0.00e+00 0.00e+00 6.61e+03
bytes remote:            0.00e+00 0.00e+00 0.00e+00 0.00e+00 0.00e+00 0.00e+00
Max memory consumed for GA by this process: 39432 bytes

MA_summarize_allocated_blocks: starting scan ...
MA_summarize_allocated_blocks: scan completed: 0 heap blocks, 0 stack blocks
MA usage statistics:

	allocation statistics:
					      heap	     stack
					      ----	     -----
	current number of blocks	         0	         0
	maximum number of blocks	        19	        29
	current total bytes		         0	         0
	maximum total bytes		     80136	  22509480
	maximum total K-bytes		        81	     22510
	maximum total M-bytes		         1	        23


                                     CITATION
                                     --------
                Please cite the following reference when publishing
                           results obtained with NWChem:

                 M. Valiev, E.J. Bylaska, N. Govind, K. Kowalski,
              T.P. Straatsma, H.J.J. van Dam, D. Wang, J. Nieplocha,
                        E. Apra, T.L. Windus, W.A. de Jong
                 "NWChem: a comprehensive and scalable open-source
                  solution for large scale molecular simulations"
                      Comput. Phys. Commun. 181, 1477 (2010)
                           doi:10.1016/j.cpc.2010.04.018

                                      AUTHORS
                                      -------
          E. Apra, E. J. Bylaska, W. A. de Jong, N. Govind, K. Kowalski,
       T. P. Straatsma, M. Valiev, H. J. J. van Dam, D. Wang, T. L. Windus,
        J. Hammond, J. Autschbach, K. Bhaskaran-Nair, J. Brabec, K. Lopata,
        S. Krishnamoorthy, W. Ma, M. Klemm, O. Villa, Y. Chen, V. Anisimov,
    F. Aquino, S. Hirata, M. T. Hackler, T. Risthaus, M. Malagoli, A. Marenich,
   A. Otero-de-la-Roza, J. Mullin, P. Nichols, R. Peverati, J. Pittner, Y. Zhao,
         P.-D. Fan, A. Fonari, R. J. Harrison, M. Dupuis, D. Silverstein,
    D. M. A. Smith, J. Nieplocha, V. Tipparaju, M. Krishnan, B. E. Van Kuiken,
        A. Vazquez-Mayagoitia, L. Jensen, M. Swart, Q. Wu, T. Van Voorhis,
     A. A. Auer, M. Nooijen, L. D. Crosby, E. Brown, G. Cisneros, G. I. Fann,
   H. Fruchtl, J. Garza, K. Hirao, R. A. Kendall, J. A. Nichols, K. Tsemekhman,
    K. Wolinski, J. Anchell, D. E. Bernholdt, P. Borowski, T. Clark, D. Clerc,
   H. Dachsel, M. J. O. Deegan, K. Dyall, D. Elwood, E. Glendening, M. Gutowski,
   A. C. Hess, J. Jaffe, B. G. Johnson, J. Ju, R. Kobayashi, R. Kutteh, Z. Lin,
   R. Littlefield, X. Long, B. Meng, T. Nakajima, S. Niu, L. Pollack, M. Rosing,
   K. Glaesemann, G. Sandrone, M. Stave, H. Taylor, G. Thomas, J. H. van Lenthe,
                               A. T. Wong, Z. Zhang.

 Total times  cpu:        0.4s     wall:        0.4s

  //>>>>>>>>>>>>>>>>>>>>>>>>>>>>>>>>>>>>//
  // NWCHEM nwchem-scf Gradient Results //
  //<<<<<<<<<<<<<<<<<<<<<<<<<<<<<<<<<<<<//


  Variable Map:
  ----------------------------------------------------------------------------
  "CURRENT ENERGY"           =>     -76.010746430545
  "CURRENT REFERENCE ENERGY" =>     -76.010746430545
  "NUCLEAR REPULSION ENERGY" =>       9.288136657100
  "SCF TOTAL ENERGY"         =>     -76.010746430545


  Irrep: 1 Size: 3 x 3

                 1                   2                   3

    1     0.00000000000000     0.00000000000000     0.00007741812100
    2     0.00000000000000    -0.00010627041200    -0.00003870906000
    3     0.00000000000000     0.00010627041200    -0.00003870906000




  //>>>>>>>>>>>>>>>>>>>>>>>>>>>>>>>>>>>>//
  // NWCHEM nwchem-scf Gradient Results //
  //<<<<<<<<<<<<<<<<<<<<<<<<<<<<<<<<<<<<//


  Variable Map:
  ----------------------------------------------------------------------------
  "CURRENT ENERGY"           =>     -76.010746430545
  "CURRENT REFERENCE ENERGY" =>     -76.010746430545
  "NUCLEAR REPULSION ENERGY" =>       9.288136657100
  "SCF TOTAL ENERGY"         =>     -76.010746430545


  Irrep: 1 Size: 3 x 3

                 1                   2                   3

    1     0.00000000000000     0.00000000000000     0.00007741812100
    2     0.00000000000000    -0.00010627041200    -0.00003870906000
    3     0.00000000000000     0.00010627041200    -0.00003870906000



   => Loading Basis Set <=

    Name: 6-31G*
    Role: ORBITAL
    Keyword: BASIS
    atoms 1   entry O          line   136 file /Users/jiyoung/common-driver-psi4/objdir/stage/usr/local/psi4/share/psi4/basis/6-31gs.gbs 
    atoms 2-3 entry H          line    35 file /Users/jiyoung/common-driver-psi4/objdir/stage/usr/local/psi4/share/psi4/basis/6-31gs.gbs 

CURRENT GRADIENT  Irrep: 1 Size: 3 x 3

                 1                   2                   3

    1     0.00000000000000     0.00000000000000     0.00007741812100
    2     0.00000000000000    -0.00010627041200    -0.00003870906000
    3     0.00000000000000     0.00010627041200    -0.00003870906000




			-----------------------------------------
			 OPTKING 2.0: for geometry optimizations 
			  - R.A. King,  Bethel University        
			-----------------------------------------

	Previous internal coordinate definitions found.
	---Fragment 1 Geometry and Gradient---
	 O           0.0000000000        0.0000000000       -0.1212037788
	 H           0.0000000000       -1.4254990604        0.9617959625
	 H          -0.0000000000        1.4254990604        0.9617959625
	             0.0000000000        0.0000000000        0.0000774181
	             0.0000000000       -0.0001062704       -0.0000387091
	             0.0000000000        0.0001062704       -0.0000387091

	---Fragment 1 Intrafragment Coordinates---
	 - Coordinate -           - BOHR/RAD -       - ANG/DEG -
	 R(1,2)           =         1.790234	       0.947351
	 R(1,3)           =         1.790234	       0.947351
	 B(2,1,3)         =         1.842189	     105.549674

	Current energy   :       -76.0107464305

	Energy change for the previous step:
		Projected    :        -0.0000026235
		Actual       :        -0.0000012203

	Performing BFGS update.
	Previous computed or guess Hessian on step 1.
	Steps to be used in Hessian update: 2 1
	Taking RFO optimization step.
	Going to follow RFO solution 1.
	Using RFO vector 1.
	Norm of target step-size    0.00087
	Projected energy change by RFO approximation:        -0.0000002049

	Back-transformation to cartesian coordinates...
	Successfully converged to displaced geometry.

	--- Internal Coordinate Step in ANG or DEG, aJ/ANG or AJ/DEG ---
	 ---------------------------------------------------------------------------
	   Coordinate                Previous        Force       Change         New 
	   ----------                --------       ------       ------       ------
	    1 R(1,2)          =      0.947351    -0.000504    -0.000033     0.947318
	    2 R(1,3)          =      0.947351    -0.000504    -0.000033     0.947318
	    3 B(2,1,3)        =    105.549674    -0.000013    -0.049761   105.499913
	 ---------------------------------------------------------------------------
	Successfully symmetrized geometry.

  ==> Convergence Check <==

  Measures of convergence in internal coordinates in au.
  Criteria marked as inactive (o), active & met (*), and active & unmet ( ).
  ---------------------------------------------------------------------------------------------
   Step     Total Energy     Delta E     MAX Force     RMS Force      MAX Disp      RMS Disp   
  ---------------------------------------------------------------------------------------------
    Convergence Criteria             o    4.50e-04 *    3.00e-04 *    1.80e-03 *    1.20e-03 *
  ---------------------------------------------------------------------------------------------
      3     -76.01074643   -1.22e-06 o    1.70e-04 *    1.10e-04 *    8.68e-04 *    5.04e-04 *  ~
  ---------------------------------------------------------------------------------------------


  **** Optimization is complete! (in 3 steps) ****

  ==> Optimization Summary <==

  Measures of convergence in internal coordinates in au.
  --------------------------------------------------------------------------------------------------------------- ~
   Step         Total Energy             Delta E       MAX Force       RMS Force        MAX Disp        RMS Disp  ~
  --------------------------------------------------------------------------------------------------------------- ~
      1     -76.010496307079    -76.010496307079      0.01129957      0.00931388      0.02019421      0.01830544  ~
      2     -76.010745210205     -0.000248903126      0.00070594      0.00041751      0.00454871      0.00262682  ~
      3     -76.010746430545     -0.000001220340      0.00017027      0.00011028      0.00086850      0.00050404  ~
  --------------------------------------------------------------------------------------------------------------- ~

	Writing optimization data to binary file.
	Final energy is    -76.0107464305450
	Final (previous) structure:
	Cartesian Geometry (in Angstrom)
	    O     0.0000000000   0.0000000000  -0.0641382773
	    H     0.0000000000  -0.7543416136   0.5089605027
	    H    -0.0000000000   0.7543416136   0.5089605027
	Saving final (previous) structure.
			--------------------------
			 OPTKING Finished Execution 
			--------------------------

    Final optimized geometry and variables:
    Molecular point group: c2v
    Full point group: C2v

    Geometry (in Angstrom), charge = 0, multiplicity = 1:

    O            0.000000000000     0.000000000000    -0.064138277340
    H            0.000000000000    -0.754341613620     0.508960502693
    H           -0.000000000000     0.754341613620     0.508960502693

	Cleaning optimization helper files.
	NRE...............................................................PASSED
	SCF...............................................................PASSED
	NRE-pure_psi4.....................................................PASSED
	SCF-pure_psi4.....................................................PASSED

*** Psi4 exiting successfully. Buy a developer a beer!
