 argument  1 = sp-uhf-mp2.nw



============================== echo of input deck ==============================
echo

geometry
N        0.08546       -0.00020       -0.05091
H       -0.25454       -0.62639        0.67895
H       -0.25454       -0.31918       -0.95813
end

basis spherical
* library cc-pVDZ
end

scf
 uhf
 nopen 1
 thresh 1.0e-8
 maxiter 80
end

task mp2 energy
================================================================================


                                         
                                         


              Northwest Computational Chemistry Package (NWChem) 6.8
              ------------------------------------------------------


                    Environmental Molecular Sciences Laboratory
                       Pacific Northwest National Laboratory
                                Richland, WA 99352

                              Copyright (c) 1994-2017
                       Pacific Northwest National Laboratory
                            Battelle Memorial Institute

             NWChem is an open-source computational chemistry package
                        distributed under the terms of the
                      Educational Community License (ECL) 2.0
             A copy of the license is included with this distribution
                              in the LICENSE.TXT file

                                  ACKNOWLEDGMENT
                                  --------------

            This software and its documentation were developed at the
            EMSL at Pacific Northwest National Laboratory, a multiprogram
            national laboratory, operated for the U.S. Department of Energy
            by Battelle under Contract Number DE-AC05-76RL01830. Support
            for this work was provided by the Department of Energy Office
            of Biological and Environmental Research, Office of Basic
            Energy Sciences, and the Office of Advanced Scientific Computing.


           Job information
           ---------------

    hostname        = twizzler.student.iastate.edu
    program         = nwchem
    date            = Tue Nov 13 11:40:05 2018

    compiled        = Wed_Oct_17_13:01:00_2018
    source          = /Users/alolinco/nwchem-6.8
    nwchem branch   = 6.8
    nwchem revision = v6.8-47-gdf6c95650
    ga revision     = ga-5.6.3
    use scalapack   = F
    input           = sp-uhf-mp2.nw
    prefix          = sp-uhf-mp2.
    data base       = ./sp-uhf-mp2.db
    status          = startup
    nproc           =        1
    time left       =     -1s



           Memory information
           ------------------

    heap     =   13107196 doubles =    100.0 Mbytes
    stack    =   13107201 doubles =    100.0 Mbytes
    global   =   26214400 doubles =    200.0 Mbytes (distinct from heap & stack)
    total    =   52428797 doubles =    400.0 Mbytes
    verify   = yes
    hardfail = no 


           Directory information
           ---------------------

  0 permanent = .
  0 scratch   = .




                                NWChem Input Module
                                -------------------



 Scaling coordinates for geometry "geometry" by  1.889725989
 (inverse scale =  0.529177249)

 C2V symmetry detected

          ------
          auto-z
          ------


                             Geometry "geometry" -> ""
                             -------------------------

 Output coordinates in angstroms (scale by  1.889725989 to convert to a.u.)

  No.       Tag          Charge          X              Y              Z
 ---- ---------------- ---------- -------------- -------------- --------------
    1 N                    7.0000     0.00000000     0.00000000     0.13086620
    2 H                    1.0000     0.83282785     0.00000000    -0.45803169
    3 H                    1.0000    -0.83282785     0.00000000    -0.45803169

      Atomic Mass 
      ----------- 

      N                 14.003070
      H                  1.007825


 Effective nuclear repulsion energy (a.u.)       7.5809058976

            Nuclear Dipole moment (a.u.) 
            ----------------------------
        X                 Y               Z
 ---------------- ---------------- ----------------
     0.0000000000     0.0000000000     0.0000000000

      Symmetry information
      --------------------

 Group name             C2v       
 Group number             16
 Group order               4
 No. of unique centers     2

      Symmetry unique atoms

     1    2



                                Z-matrix (autoz)
                                -------- 

 Units are Angstrom for bonds and degrees for angles

      Type          Name      I     J     K     L     M      Value
      ----------- --------  ----- ----- ----- ----- ----- ----------
    1 Stretch                  1     2                       1.02000
    2 Stretch                  1     3                       1.02000
    3 Bend                     2     1     3               109.47125


            XYZ format geometry
            -------------------
     3
 geometry
 N                     0.00000000     0.00000000     0.13086620
 H                     0.83282785     0.00000000    -0.45803169
 H                    -0.83282785     0.00000000    -0.45803169

 ==============================================================================
                                internuclear distances
 ------------------------------------------------------------------------------
       center one      |      center two      | atomic units |  angstroms
 ------------------------------------------------------------------------------
    2 H                |   1 N                |     1.92752  |     1.02000
    3 H                |   1 N                |     1.92752  |     1.02000
 ------------------------------------------------------------------------------
                         number of included internuclear distances:          2
 ==============================================================================



 ==============================================================================
                                 internuclear angles
 ------------------------------------------------------------------------------
        center 1       |       center 2       |       center 3       |  degrees
 ------------------------------------------------------------------------------
    2 H                |   1 N                |   3 H                |   109.47
 ------------------------------------------------------------------------------
                            number of included internuclear angles:          1
 ==============================================================================





 Summary of "ao basis" -> "" (spherical)
 ------------------------------------------------------------------------------
       Tag                 Description            Shells   Functions and Types
 ---------------- ------------------------------  ------  ---------------------
 *                          cc-pVDZ                   on all atoms 


                      Basis "ao basis" -> "ao basis" (spherical)
                      -----
  N (Nitrogen)
  ------------
            Exponent  Coefficients 
       -------------- ---------------------------------------------------------
  1 S  9.04600000E+03  0.000700
  1 S  1.35700000E+03  0.005389
  1 S  3.09300000E+02  0.027406
  1 S  8.77300000E+01  0.103207
  1 S  2.85600000E+01  0.278723
  1 S  1.02100000E+01  0.448540
  1 S  3.83800000E+00  0.278238
  1 S  7.46600000E-01  0.015440

  2 S  9.04600000E+03 -0.000153
  2 S  1.35700000E+03 -0.001208
  2 S  3.09300000E+02 -0.005992
  2 S  8.77300000E+01 -0.024544
  2 S  2.85600000E+01 -0.067459
  2 S  1.02100000E+01 -0.158078
  2 S  3.83800000E+00 -0.121831
  2 S  7.46600000E-01  0.549003

  3 S  2.24800000E-01  1.000000

  4 P  1.35500000E+01  0.039919
  4 P  2.91700000E+00  0.217169
  4 P  7.97300000E-01  0.510319

  5 P  2.18500000E-01  1.000000

  6 D  8.17000000E-01  1.000000

  H (Hydrogen)
  ------------
            Exponent  Coefficients 
       -------------- ---------------------------------------------------------
  1 S  1.30100000E+01  0.019685
  1 S  1.96200000E+00  0.137977
  1 S  4.44600000E-01  0.478148

  2 S  1.22000000E-01  1.000000

  3 P  7.27000000E-01  1.000000



 Summary of "ao basis" -> "ao basis" (spherical)
 ------------------------------------------------------------------------------
       Tag                 Description            Shells   Functions and Types
 ---------------- ------------------------------  ------  ---------------------
 N                          cc-pVDZ                  6       14   3s2p1d
 H                          cc-pVDZ                  3        5   2s1p


                                 NWChem SCF Module
                                 -----------------



  ao basis        = "ao basis"
  functions       =    24
  atoms           =     3
  alpha electrons =     5
  beta  electrons =     4
  charge          =   0.00
  wavefunction    = UHF 
  input vectors   = atomic
  output vectors  = ./sp-uhf-mp2.movecs
  use symmetry    = T
  symmetry adapt  = T


 Summary of "ao basis" -> "ao basis" (spherical)
 ------------------------------------------------------------------------------
       Tag                 Description            Shells   Functions and Types
 ---------------- ------------------------------  ------  ---------------------
 N                          cc-pVDZ                  6       14   3s2p1d
 H                          cc-pVDZ                  3        5   2s1p


      Symmetry analysis of basis
      --------------------------

        a1         11
        a2          2
        b1          7
        b2          4


 Forming initial guess at       0.1s


      Superposition of Atomic Density Guess
      -------------------------------------

 Sum of atomic energies:         -55.29858115

      Non-variational initial energy
      ------------------------------

 Total energy =     -55.364042
 1-e energy   =     -89.364581
 2-e energy   =      26.419633
 HOMO         =      -0.277010
 LUMO         =       0.126021


   Symmetry analysis of molecular orbitals - initial alpha
   -------------------------------------------------------

  Numbering of irreducible representations: 

     1 a1          2 a2          3 b1          4 b2      

  Orbital symmetries:

     1 a1          2 a1          3 b1          4 a1          5 b2      
     6 a1          7 b1          8 b1          9 a1         10 a1      
    11 b2         12 b1         13 a1         14 a2         15 a1      


   Symmetry analysis of molecular orbitals - initial beta
   ------------------------------------------------------

  Numbering of irreducible representations: 

     1 a1          2 a2          3 b1          4 b2      

  Orbital symmetries:

     1 a1          2 a1          3 b1          4 a1          5 b2      
     6 a1          7 b1          8 b1          9 a1         10 a1      
    11 b2         12 b1         13 a1         14 a2         15 a1      


 Starting SCF solution at       0.2s



 ----------------------------------------------
         Quadratically convergent UHF

 Convergence threshold     :          1.000E-08
 Maximum no. of iterations :           80
 Integral*density screening:          1.000E-10
 ----------------------------------------------


 #quartets = 1.953D+03 #integrals = 1.481D+04 #direct =  0.0% #cached =100.0%


 Integral file          = ./sp-uhf-mp2.aoints.0
 Record size in doubles =    65536    No. of integs per rec  =    43688
 Max. records in memory =        2    Max. records in file   =  1847926
 No. of bits per label  =        8    No. of bits per value  =       64


              iter       energy          gnorm     gmax       time
             ----- ------------------- --------- --------- --------
                 1      -55.5502881702  3.28D-01  1.19D-01      0.3
                 2      -55.5646001498  7.80D-02  3.74D-02      0.3
                 3      -55.5660494533  4.25D-03  1.36D-03      0.4
                 4      -55.5660575239  1.10D-05  4.18D-06      0.5
                 5      -55.5660575239  5.42D-10  1.93D-10      0.7


       Final UHF  results 
       ------------------ 

         Total SCF energy =    -55.566057523891
      One electron energy =    -90.265220524968
      Two electron energy =     27.118257103449
 Nuclear repulsion energy =      7.580905897627

                       Sz =      0.5000
                 Sz(Sz+1) =      0.7500
                      S^2 =      0.7578

        Time for solution =      0.5s



       Symmetry analysis of molecular orbitals - alpha
       -----------------------------------------------

  Numbering of irreducible representations: 

     1 a1          2 a2          3 b1          4 b2      

  Orbital symmetries:

     1 a1          2 a1          3 b1          4 b2          5 a1      
     6 a1          7 b1          8 b1          9 a1         10 b2      
    11 a1         12 b1         13 a1         14 a2         15 a1      


       Symmetry analysis of molecular orbitals - beta
       ----------------------------------------------

  Numbering of irreducible representations: 

     1 a1          2 a2          3 b1          4 b2      

  Orbital symmetries:

     1 a1          2 a1          3 b1          4 a1          5 b2      
     6 a1          7 b1          8 b1          9 a1         10 a1      
    11 b1         12 b2         13 a1         14 a2         15 a1      

          Final alpha eigenvalues
          -----------------------

              1      
    1  -15.5862
    2   -1.1535
    3   -0.6493
    4   -0.5023
    5   -0.4850
    6    0.1838
    7    0.2562
    8    0.7492
    9    0.7902
   10    0.9187
   11    0.9632
   12    1.0568
   13    1.2898
   14    1.3685
   15    1.5049

          Final beta eigenvalues
          ----------------------

              1      
    1  -15.5542
    2   -1.0312
    3   -0.6253
    4   -0.4417
    5    0.1530
    6    0.1969
    7    0.2643
    8    0.7489
    9    0.8141
   10    0.9856
   11    1.0755
   12    1.0941
   13    1.3176
   14    1.4133
   15    1.5380

                    UHF Final Alpha Molecular Orbital Analysis
                    ------------------------------------------

 Vector    2  Occ=1.000000D+00  E=-1.153477D+00  Symmetry=a1
              MO Center= -1.5D-17,  5.2D-18, -7.8D-02, r^2= 6.4D-01
   Bfn.  Coefficient  Atom+Function         Bfn.  Coefficient  Atom+Function  
  ----- ------------  ---------------      ----- ------------  ---------------
     2      0.438464  1 N  s                  3      0.374457  1 N  s          
    15      0.196578  2 H  s                 20      0.196578  3 H  s          

 Vector    3  Occ=1.000000D+00  E=-6.493061D-01  Symmetry=b1
              MO Center= -2.7D-16,  1.5D-17, -1.2D-01, r^2= 9.3D-01
   Bfn.  Coefficient  Atom+Function         Bfn.  Coefficient  Atom+Function  
  ----- ------------  ---------------      ----- ------------  ---------------
     4      0.468399  1 N  px                15      0.316627  2 H  s          
    20     -0.316627  3 H  s                  7      0.216465  1 N  px         

 Vector    4  Occ=1.000000D+00  E=-5.023309D-01  Symmetry=b2
              MO Center= -4.3D-35, -1.2D-17,  1.1D-01, r^2= 7.5D-01
   Bfn.  Coefficient  Atom+Function         Bfn.  Coefficient  Atom+Function  
  ----- ------------  ---------------      ----- ------------  ---------------
     5      0.638673  1 N  py                 8      0.488141  1 N  py         

 Vector    5  Occ=1.000000D+00  E=-4.849670D-01  Symmetry=a1
              MO Center=  5.6D-17, -1.9D-32,  2.3D-01, r^2= 8.4D-01
   Bfn.  Coefficient  Atom+Function         Bfn.  Coefficient  Atom+Function  
  ----- ------------  ---------------      ----- ------------  ---------------
     6      0.532046  1 N  pz                 9      0.387226  1 N  pz         
     3      0.353615  1 N  s                 15     -0.180534  2 H  s          
    20     -0.180534  3 H  s                  2      0.164718  1 N  s          

 Vector    6  Occ=0.000000D+00  E= 1.838233D-01  Symmetry=a1
              MO Center=  1.3D-16, -2.2D-17, -6.3D-01, r^2= 3.4D+00
   Bfn.  Coefficient  Atom+Function         Bfn.  Coefficient  Atom+Function  
  ----- ------------  ---------------      ----- ------------  ---------------
     3      1.289509  1 N  s                 16     -1.007103  2 H  s          
    21     -1.007103  3 H  s                  9     -0.447116  1 N  pz         
     6     -0.188976  1 N  pz         

 Vector    7  Occ=0.000000D+00  E= 2.562395D-01  Symmetry=b1
              MO Center= -1.3D-15, -4.1D-19, -6.7D-01, r^2= 3.8D+00
   Bfn.  Coefficient  Atom+Function         Bfn.  Coefficient  Atom+Function  
  ----- ------------  ---------------      ----- ------------  ---------------
    16      1.514976  2 H  s                 21     -1.514976  3 H  s          
     7     -0.867437  1 N  px                 4     -0.299498  1 N  px         

 Vector    8  Occ=0.000000D+00  E= 7.491882D-01  Symmetry=b1
              MO Center= -1.6D-14,  4.7D-18, -7.0D-02, r^2= 1.8D+00
   Bfn.  Coefficient  Atom+Function         Bfn.  Coefficient  Atom+Function  
  ----- ------------  ---------------      ----- ------------  ---------------
    15      0.903720  2 H  s                 20     -0.903720  3 H  s          
     7     -0.687073  1 N  px                16     -0.484209  2 H  s          
    21      0.484209  3 H  s                  4     -0.154059  1 N  px         
    13      0.154123  1 N  d  1       

 Vector    9  Occ=0.000000D+00  E= 7.901604D-01  Symmetry=a1
              MO Center=  2.0D-14, -2.9D-16, -4.7D-01, r^2= 1.6D+00
   Bfn.  Coefficient  Atom+Function         Bfn.  Coefficient  Atom+Function  
  ----- ------------  ---------------      ----- ------------  ---------------
    15      0.843492  2 H  s                 20      0.843492  3 H  s          
    16     -0.512041  2 H  s                 21     -0.512041  3 H  s          
    17      0.228990  2 H  px                22     -0.228990  3 H  px         
     6      0.227751  1 N  pz                 2     -0.218159  1 N  s          
    14      0.186857  1 N  d  2               9      0.178111  1 N  pz         

 Vector   10  Occ=0.000000D+00  E= 9.186678D-01  Symmetry=b2
              MO Center= -1.7D-18,  1.2D-15,  1.5D-01, r^2= 1.4D+00
   Bfn.  Coefficient  Atom+Function         Bfn.  Coefficient  Atom+Function  
  ----- ------------  ---------------      ----- ------------  ---------------
     8      1.084858  1 N  py                 5     -0.977252  1 N  py         

 Vector   11  Occ=0.000000D+00  E= 9.631520D-01  Symmetry=a1
              MO Center=  7.3D-16, -6.4D-16,  3.4D-01, r^2= 1.5D+00
   Bfn.  Coefficient  Atom+Function         Bfn.  Coefficient  Atom+Function  
  ----- ------------  ---------------      ----- ------------  ---------------
     9      1.326729  1 N  pz                 6     -0.875799  1 N  pz         
     3     -0.605875  1 N  s                 15      0.315031  2 H  s          
    20      0.315031  3 H  s                 16      0.249149  2 H  s          
    21      0.249149  3 H  s          

 Vector   12  Occ=0.000000D+00  E= 1.056788D+00  Symmetry=b1
              MO Center= -3.3D-15, -1.9D-32,  4.8D-02, r^2= 2.1D+00
   Bfn.  Coefficient  Atom+Function         Bfn.  Coefficient  Atom+Function  
  ----- ------------  ---------------      ----- ------------  ---------------
     7      1.812860  1 N  px                16     -1.049437  2 H  s          
    21      1.049437  3 H  s                  4     -0.823483  1 N  px         
    17      0.247482  2 H  px                22      0.247482  3 H  px         
    19     -0.176610  2 H  pz                24      0.176610  3 H  pz         

 Vector   13  Occ=0.000000D+00  E= 1.289817D+00  Symmetry=a1
              MO Center=  5.8D-16, -1.2D-16, -1.3D-01, r^2= 1.7D+00
   Bfn.  Coefficient  Atom+Function         Bfn.  Coefficient  Atom+Function  
  ----- ------------  ---------------      ----- ------------  ---------------
     3      2.579363  1 N  s                  2     -1.441123  1 N  s          
     1     -0.632257  1 N  s                 16     -0.622024  2 H  s          
    21     -0.622024  3 H  s                 19     -0.372496  2 H  pz         
    24     -0.372496  3 H  pz                 9     -0.288714  1 N  pz         
    15     -0.215517  2 H  s                 20     -0.215517  3 H  s          

 Vector   14  Occ=0.000000D+00  E= 1.368451D+00  Symmetry=a2
              MO Center= -7.0D-15, -4.1D-17, -3.3D-01, r^2= 1.1D+00
   Bfn.  Coefficient  Atom+Function         Bfn.  Coefficient  Atom+Function  
  ----- ------------  ---------------      ----- ------------  ---------------
    18      0.586411  2 H  py                23     -0.586411  3 H  py         
    10      0.311906  1 N  d -2       

 Vector   15  Occ=0.000000D+00  E= 1.504911D+00  Symmetry=a1
              MO Center= -1.6D-15, -7.7D-17, -1.2D-01, r^2= 1.3D+00
   Bfn.  Coefficient  Atom+Function         Bfn.  Coefficient  Atom+Function  
  ----- ------------  ---------------      ----- ------------  ---------------
     3      1.792305  1 N  s                  2     -0.893161  1 N  s          
     9     -0.811708  1 N  pz                15     -0.495075  2 H  s          
    20     -0.495075  3 H  s                  1     -0.415760  1 N  s          
    19      0.376870  2 H  pz                24      0.376870  3 H  pz         
    17      0.351881  2 H  px                22     -0.351881  3 H  px         


                     UHF Final Beta Molecular Orbital Analysis
                     -----------------------------------------

 Vector    2  Occ=1.000000D+00  E=-1.031244D+00  Symmetry=a1
              MO Center= -1.2D-17,  2.6D-17, -1.3D-01, r^2= 6.9D-01
   Bfn.  Coefficient  Atom+Function         Bfn.  Coefficient  Atom+Function  
  ----- ------------  ---------------      ----- ------------  ---------------
     2      0.399630  1 N  s                  3      0.323049  1 N  s          
    15      0.242500  2 H  s                 20      0.242500  3 H  s          

 Vector    3  Occ=1.000000D+00  E=-6.253399D-01  Symmetry=b1
              MO Center= -6.4D-16,  1.7D-17, -1.5D-01, r^2= 9.8D-01
   Bfn.  Coefficient  Atom+Function         Bfn.  Coefficient  Atom+Function  
  ----- ------------  ---------------      ----- ------------  ---------------
     4      0.436608  1 N  px                15      0.343194  2 H  s          
    20     -0.343194  3 H  s                  7      0.192539  1 N  px         

 Vector    4  Occ=1.000000D+00  E=-4.417019D-01  Symmetry=a1
              MO Center= -1.9D-16, -1.6D-16,  2.8D-01, r^2= 8.4D-01
   Bfn.  Coefficient  Atom+Function         Bfn.  Coefficient  Atom+Function  
  ----- ------------  ---------------      ----- ------------  ---------------
     6      0.508534  1 N  pz                 9      0.402799  1 N  pz         
     3      0.388021  1 N  s                  2      0.177088  1 N  s          
    15     -0.171462  2 H  s                 20     -0.171462  3 H  s          

 Vector    5  Occ=0.000000D+00  E= 1.530444D-01  Symmetry=b2
              MO Center= -2.4D-17,  1.9D-16,  1.0D-01, r^2= 1.1D+00
   Bfn.  Coefficient  Atom+Function         Bfn.  Coefficient  Atom+Function  
  ----- ------------  ---------------      ----- ------------  ---------------
     8      0.685338  1 N  py                 5      0.428759  1 N  py         

 Vector    6  Occ=0.000000D+00  E= 1.969001D-01  Symmetry=a1
              MO Center=  1.2D-16, -2.6D-17, -6.4D-01, r^2= 3.4D+00
   Bfn.  Coefficient  Atom+Function         Bfn.  Coefficient  Atom+Function  
  ----- ------------  ---------------      ----- ------------  ---------------
     3      1.337291  1 N  s                 16     -1.024202  2 H  s          
    21     -1.024202  3 H  s                  9     -0.454273  1 N  pz         
     6     -0.184001  1 N  pz         

 Vector    7  Occ=0.000000D+00  E= 2.643473D-01  Symmetry=b1
              MO Center=  1.2D-15,  2.0D-19, -6.6D-01, r^2= 3.8D+00
   Bfn.  Coefficient  Atom+Function         Bfn.  Coefficient  Atom+Function  
  ----- ------------  ---------------      ----- ------------  ---------------
    16      1.527977  2 H  s                 21     -1.527977  3 H  s          
     7     -0.887337  1 N  px                 4     -0.297554  1 N  px         

 Vector    8  Occ=0.000000D+00  E= 7.489102D-01  Symmetry=b1
              MO Center= -1.5D-14,  3.7D-18, -5.0D-02, r^2= 1.8D+00
   Bfn.  Coefficient  Atom+Function         Bfn.  Coefficient  Atom+Function  
  ----- ------------  ---------------      ----- ------------  ---------------
    15      0.897145  2 H  s                 20     -0.897145  3 H  s          
     7     -0.711836  1 N  px                16     -0.465872  2 H  s          
    21      0.465872  3 H  s                  4     -0.159227  1 N  px         

 Vector    9  Occ=0.000000D+00  E= 8.140582D-01  Symmetry=a1
              MO Center=  1.8D-14, -2.8D-16, -4.7D-01, r^2= 1.5D+00
   Bfn.  Coefficient  Atom+Function         Bfn.  Coefficient  Atom+Function  
  ----- ------------  ---------------      ----- ------------  ---------------
    15      0.831316  2 H  s                 20      0.831316  3 H  s          
    16     -0.498251  2 H  s                 21     -0.498251  3 H  s          
    17      0.247765  2 H  px                22     -0.247765  3 H  px         
     6      0.242787  1 N  pz                 2     -0.231501  1 N  s          
     9      0.157655  1 N  pz                14      0.155651  1 N  d  2       

 Vector   10  Occ=0.000000D+00  E= 9.855755D-01  Symmetry=a1
              MO Center=  6.4D-16,  3.9D-17,  3.2D-01, r^2= 1.5D+00
   Bfn.  Coefficient  Atom+Function         Bfn.  Coefficient  Atom+Function  
  ----- ------------  ---------------      ----- ------------  ---------------
     9      1.322885  1 N  pz                 6     -0.880651  1 N  pz         
     3     -0.624637  1 N  s                 15      0.340378  2 H  s          
    20      0.340378  3 H  s                 16      0.240543  2 H  s          
    21      0.240543  3 H  s                  2     -0.152442  1 N  s          

 Vector   11  Occ=0.000000D+00  E= 1.075543D+00  Symmetry=b1
              MO Center= -3.2D-15,  3.4D-32,  4.5D-02, r^2= 2.1D+00
   Bfn.  Coefficient  Atom+Function         Bfn.  Coefficient  Atom+Function  
  ----- ------------  ---------------      ----- ------------  ---------------
     7      1.797364  1 N  px                16     -1.038161  2 H  s          
    21      1.038161  3 H  s                  4     -0.826639  1 N  px         
    17      0.256136  2 H  px                22      0.256136  3 H  px         
    19     -0.182697  2 H  pz                24      0.182697  3 H  pz         
    15     -0.154692  2 H  s                 20      0.154692  3 H  s          

 Vector   12  Occ=0.000000D+00  E= 1.094148D+00  Symmetry=b2
              MO Center= -1.2D-16,  4.6D-16,  1.5D-01, r^2= 1.1D+00
   Bfn.  Coefficient  Atom+Function         Bfn.  Coefficient  Atom+Function  
  ----- ------------  ---------------      ----- ------------  ---------------
     5      1.080464  1 N  py                 8     -0.980734  1 N  py         

 Vector   13  Occ=0.000000D+00  E= 1.317562D+00  Symmetry=a1
              MO Center= -5.7D-16, -1.3D-16, -1.3D-01, r^2= 1.6D+00
   Bfn.  Coefficient  Atom+Function         Bfn.  Coefficient  Atom+Function  
  ----- ------------  ---------------      ----- ------------  ---------------
     3      2.397499  1 N  s                  2     -1.355020  1 N  s          
     1     -0.589807  1 N  s                 16     -0.585413  2 H  s          
    21     -0.585413  3 H  s                 19     -0.411170  2 H  pz         
    24     -0.411170  3 H  pz                 9     -0.201635  1 N  pz         
    15     -0.166552  2 H  s                 20     -0.166552  3 H  s          

 Vector   14  Occ=0.000000D+00  E= 1.413301D+00  Symmetry=a2
              MO Center= -8.5D-15, -4.1D-17, -3.5D-01, r^2= 1.1D+00
   Bfn.  Coefficient  Atom+Function         Bfn.  Coefficient  Atom+Function  
  ----- ------------  ---------------      ----- ------------  ---------------
    18      0.609126  2 H  py                23     -0.609126  3 H  py         
    10      0.266287  1 N  d -2       

 Vector   15  Occ=0.000000D+00  E= 1.538043D+00  Symmetry=a1
              MO Center= -8.9D-16, -6.3D-17, -1.3D-01, r^2= 1.3D+00
   Bfn.  Coefficient  Atom+Function         Bfn.  Coefficient  Atom+Function  
  ----- ------------  ---------------      ----- ------------  ---------------
     3      2.060799  1 N  s                  2     -1.019535  1 N  s          
     9     -0.879230  1 N  pz                15     -0.559212  2 H  s          
    20     -0.559212  3 H  s                  1     -0.478334  1 N  s          
    16     -0.366316  2 H  s                 21     -0.366316  3 H  s          
    19      0.355425  2 H  pz                24      0.355425  3 H  pz         


 center of mass
 --------------
 x =   0.00000000 y =   0.00000000 z =   0.10726962

 moments of inertia (a.u.)
 ------------------
           2.182168288373           0.000000000000           0.000000000000
           0.000000000000           7.174728067941           0.000000000000
           0.000000000000           0.000000000000           4.992559779568

  Mulliken analysis of the total density
  --------------------------------------

    Atom       Charge   Shell Charges
 -----------   ------   -------------------------------------------------------
    1 N    7     7.22   2.00  0.80  0.81  2.17  1.42  0.02
    2 H    1     0.89   0.73  0.11  0.05
    3 H    1     0.89   0.73  0.11  0.05

  Mulliken analysis of the alpha density
  --------------------------------------

    Atom       Charge   Shell Charges
 -----------   ------   -------------------------------------------------------
    1 N    7     4.17   1.00  0.42  0.42  1.40  0.92  0.01
    2 H    1     0.42   0.34  0.05  0.03
    3 H    1     0.42   0.34  0.05  0.03

   Mulliken analysis of the beta density
   -------------------------------------

    Atom       Charge   Shell Charges
 -----------   ------   -------------------------------------------------------
    1 N    7     3.05   1.00  0.38  0.39  0.76  0.50  0.01
    2 H    1     0.47   0.39  0.07  0.02
    3 H    1     0.47   0.39  0.07  0.02

   Mulliken analysis of the spin density
   -------------------------------------

    Atom       Charge   Shell Charges
 -----------   ------   -------------------------------------------------------
    1 N    7     1.12   0.00  0.04  0.02  0.64  0.42 -0.00
    2 H    1    -0.06  -0.05 -0.02  0.01
    3 H    1    -0.06  -0.05 -0.02  0.01

       Multipole analysis of the density wrt the origin
       ------------------------------------------------

     L   x y z        total         alpha         beta         nuclear
     -   - - -        -----         -----         ----         -------
     0   0 0 0     -0.000000     -5.000000     -4.000000      9.000000

     1   1 0 0      0.000000      0.000000      0.000000      0.000000
     1   0 1 0      0.000000     -0.000000      0.000000      0.000000
     1   0 0 1     -0.738837     -0.495149     -0.243687      0.000000

     2   2 0 0     -3.819652     -4.502389     -4.271060      4.953796
     2   1 1 0      0.000000     -0.000000      0.000000      0.000000
     2   1 0 1      0.000000      0.000000      0.000000      0.000000
     2   0 2 0     -5.025989     -3.303216     -1.722773      0.000000
     2   0 1 1      0.000000     -0.000000      0.000000      0.000000
     2   0 0 2     -5.489920     -3.898181     -3.518213      1.926474


 Parallel integral file used       1 records with       0 large values

                   NWChem MP2 Semi-direct Energy/Gradient Module
                   ---------------------------------------------


  Basis functions       =     24
  Molecular orbitals    =     24
  Frozen core           =      0
  Frozen virtuals       =      0
  Active alpha occupied =      5
  Active beta occupied  =      4
  Active alpha virtual  =     19
  Active beta virtual   =     20
  Use MO symmetry       = T
  Use skeleton AO sym   = T

  AO/Fock/Back tols     =   1.0D-09  1.0D-09  1.0D-09

 GA uses MA = F    GA memory limited = T

 Available: 
  local mem=  2.62D+07
 global mem=  2.62D+07
 local disk=  1.27D+11
  mp2_memr nvloc                    19
  nvloc new                    19
   1 passes of   5:         275808                       3597                     69125.

 Semi-direct pass number   1 of   1  for UHF alpha       at        0.8s
  vrange nnbf                   300
Node 0 wrote      0.2 Mb in      0.0 s     Agg I/O rate:   326.2 Mb/s
 Done moints_semi at        0.9s
 Done maket at        0.9s
 Done multipass loop at        0.9s

 GA uses MA = F    GA memory limited = T

 Available: 
  local mem=  2.62D+07
 global mem=  2.62D+07
 local disk=  1.27D+11
  mp2_memr nvloc                    20
  nvloc new                    20
   1 passes of   4:         275196                       3215                     58325.

 Semi-direct pass number   1 of   1  for UHF beta        at        1.0s
  vrange nnbf                   300
Node 0 wrote      0.2 Mb in      0.0 s     Agg I/O rate:   328.8 Mb/s
 Done moints_semi at        1.1s
 Done maket at        1.1s
 Done multipass loop at        1.1s


          -------------------------------------------
          SCF energy                 -55.566057523891
          Correlation energy          -0.145144719538
          Singlet pairs                0.000000000000
          Triplet pairs                0.000000000000
          Total MP2 energy           -55.711202243429
          -------------------------------------------



          ---------------------------------------------------
                    Spin Component Scaled (SCS) MP2
          Same spin pairs                     -0.032479006165
          Same spin scaling factor             0.333333333333
          Opposite spin pairs                 -0.112665713373
          Opposite spin scaling fact.          1.200000000000
          SCS-MP2 correlation energy          -0.146025191436
          Total SCS-MP2 energy               -55.712082715327
          ---------------------------------------------------

 -----------------------
 Performance information
 -----------------------

 Timer overhead =  1.96D-07 seconds/call

               Nr. of calls         CPU time (s)                 Wall time (s)                GFlops
             ---------------    -------------------     ------------------------------   -------------------
Name         Min   Avg   Max    Min     Avg     Max     Min     Avg     Max   Mx/calls   Min     Max     Sum
mp2: moin     2     2     2   0.15    0.15    0.15     0.15    0.15    0.15    7.73E-2   0.0     0.0     0.0   
mp2: make     2     2     2   3.75E-2 3.75E-2 3.75E-2  3.75E-2 3.75E-2 3.75E-2 1.88E-2   0.0     0.0     0.0   
mp2: tota     1     1     1   0.31    0.31    0.31     0.31    0.31    0.31    0.31      0.0     0.0     0.0   

 The average no. of pstat calls per process was 5.00D+00
 with a timing overhead of 9.81D-07s


 Task  times  cpu:        1.0s     wall:        1.0s
 Summary of allocated global arrays
-----------------------------------
  No active global arrays



                         GA Statistics for process    0
                         ------------------------------

       create   destroy   get      put      acc     scatter   gather  read&inc
calls: 1139     1139     1.36e+04 4707     8140      178        0     1123     
number of processes/call 1.00e+00 1.00e+00 1.00e+00 0.00e+00 0.00e+00
bytes total:             5.51e+06 4.15e+06 2.52e+06 6.40e+02 0.00e+00 8.98e+03
bytes remote:            0.00e+00 0.00e+00 0.00e+00 0.00e+00 0.00e+00 0.00e+00
Max memory consumed for GA by this process: 884744 bytes
MA_summarize_allocated_blocks: starting scan ...
MA_summarize_allocated_blocks: scan completed: 0 heap blocks, 0 stack blocks
MA usage statistics:

	allocation statistics:
					      heap	     stack
					      ----	     -----
	current number of blocks	         0	         0
	maximum number of blocks	        18	        22
	current total bytes		         0	         0
	maximum total bytes		   1061728	  22510184
	maximum total K-bytes		      1062	     22511
	maximum total M-bytes		         2	        23


                                NWChem Input Module
                                -------------------





                                     CITATION
                                     --------
                Please cite the following reference when publishing
                           results obtained with NWChem:

                 M. Valiev, E.J. Bylaska, N. Govind, K. Kowalski,
              T.P. Straatsma, H.J.J. van Dam, D. Wang, J. Nieplocha,
                        E. Apra, T.L. Windus, W.A. de Jong
                 "NWChem: a comprehensive and scalable open-source
                  solution for large scale molecular simulations"
                      Comput. Phys. Commun. 181, 1477 (2010)
                           doi:10.1016/j.cpc.2010.04.018

                                      AUTHORS
                                      -------
          E. Apra, E. J. Bylaska, W. A. de Jong, N. Govind, K. Kowalski,
       T. P. Straatsma, M. Valiev, H. J. J. van Dam, D. Wang, T. L. Windus,
        J. Hammond, J. Autschbach, K. Bhaskaran-Nair, J. Brabec, K. Lopata,
    S. A. Fischer, S. Krishnamoorthy, M. Jacquelin, W. Ma, M. Klemm, O. Villa,
      Y. Chen, V. Anisimov, F. Aquino, S. Hirata, M. T. Hackler, V. Konjkov,
            D. Mejia-Rodriguez, T. Risthaus, M. Malagoli, A. Marenich,
   A. Otero-de-la-Roza, J. Mullin, P. Nichols, R. Peverati, J. Pittner, Y. Zhao,
        P.-D. Fan, A. Fonari, M. J. Williamson, R. J. Harrison, J. R. Rehr,
      M. Dupuis, D. Silverstein, D. M. A. Smith, J. Nieplocha, V. Tipparaju,
    M. Krishnan, B. E. Van Kuiken, A. Vazquez-Mayagoitia, L. Jensen, M. Swart,
      Q. Wu, T. Van Voorhis, A. A. Auer, M. Nooijen, L. D. Crosby, E. Brown,
      G. Cisneros, G. I. Fann, H. Fruchtl, J. Garza, K. Hirao, R. A. Kendall,
      J. A. Nichols, K. Tsemekhman, K. Wolinski, J. Anchell, D. E. Bernholdt,
      P. Borowski, T. Clark, D. Clerc, H. Dachsel, M. J. O. Deegan, K. Dyall,
    D. Elwood, E. Glendening, M. Gutowski, A. C. Hess, J. Jaffe, B. G. Johnson,
     J. Ju, R. Kobayashi, R. Kutteh, Z. Lin, R. Littlefield, X. Long, B. Meng,
      T. Nakajima, S. Niu, L. Pollack, M. Rosing, K. Glaesemann, G. Sandrone,
      M. Stave, H. Taylor, G. Thomas, J. H. van Lenthe, A. T. Wong, Z. Zhang.

 Total times  cpu:        1.1s     wall:        1.1s
